LAMMPS (29 Oct 2020)
OMP_NUM_THREADS environment is not set. Defaulting to 1 thread. (src/comm.cpp:94)
  using 1 OpenMP thread(s) per MPI task
units real
dimension 3
boundary p p p
atom_style charge
box tilt large

#读取data文件
read_data  MoS.data
Reading data file ...
  triclinic box = (0.0000000 0.0000000 0.0000000) to (15.927209 13.793478 13.223810) with tilt (-7.9634160 0.0000000 0.0000000)
  1 by 1 by 1 MPI processor grid
  reading atoms ...
  148 atoms
  read_data CPU = 0.001 seconds
timestep 1

#replicate 1 1 1
mass 1 95.95
mass 2 32.065

# mass 3  1.008


pair_style reax/c NULL safezone 16.0 mincap 2400
pair_coeff * * ffield.reax Mo S

fix 1 all qeq/reax 1 0.0 10.0 1.0e-6 reax/c

thermo 10
thermo_style custom step pe temp lx  press
fix 2 all box/relax x 0.0 y 0.0 z 0.0 xy 0.0 xz 0.0 yz 0.0 vmax 0.0001
minimize 1.0e-12 1.0e-12 10000 10000
WARNING: Using 'neigh_modify every 1 delay 0 check yes' setting during minimization (src/min.cpp:187)
Neighbor list info ...
  update every 1 steps, delay 0 steps, check yes
  max neighbors/atom: 2000, page size: 100000
  master list distance cutoff = 12
  ghost atom cutoff = 12
  binsize = 6, bins = 4 3 3
  2 neighbor lists, perpetual/occasional/extra = 2 0 0
  (1) pair reax/c, perpetual
      attributes: half, newton off, ghost
      pair build: half/bin/newtoff/ghost
      stencil: half/ghost/bin/3d/newtoff
      bin: standard
  (2) fix qeq/reax, perpetual, copy from (1)
      attributes: half, newton off, ghost
      pair build: copy
      stencil: none
      bin: none
Per MPI rank memory allocation (min/avg/max) = 909.4 | 909.4 | 909.4 Mbytes
Step PotEng Temp Lx Press 
       0    -16971.19            0    15.927209   -23427.388 
      10   -16980.563            0    15.912758   -21140.903 
      20   -16988.827            0    15.898003   -18748.656 
      30   -16995.958            0    15.882829   -16224.356 
      40   -17001.892            0     15.86718   -13548.571 
      50   -17006.458            0    15.851518   -10799.193 
      60   -17009.801            0    15.835926   -8032.0328 
      70   -17012.346            0    15.820478   -5436.1564 
      80   -17015.012            0      15.8068   -3666.5375 
      90   -17018.476            0    15.795565   -3231.4384 
     100   -17022.032            0     15.78128   -6483.9121 
     110   -17024.199            0    15.767122   -13237.249 
     120   -17026.391            0    15.752988    -12307.09 
     130   -17028.305            0    15.741113   -6404.6864 
     140   -17030.324            0    15.732764   -2342.1208 
     150   -17046.588            0    15.729398    167.73146 
     160   -17064.793            0    15.737428    414.82419 
     170   -17072.907            0    15.744159    25.505872 
     180    -17079.19            0     15.74957    345.63366 
     190   -17082.715            0    15.753904    316.24341 
     200    -17085.64            0    15.757618    296.98743 
     210   -17088.257            0    15.761083    280.17537 
     220   -17090.649            0    15.764347    263.70599 
     230   -17092.864            0    15.767439    246.61093 
     240   -17094.942            0     15.77038    229.05601 
     250   -17096.913            0     15.77319    211.42611 
     260   -17098.806            0     15.77589      193.934 
     270   -17100.645            0      15.7785    176.95776 
     280   -17102.454            0    15.781039    160.94861 
     290   -17104.257            0    15.783524    146.13518 
     300   -17106.076            0     15.78597    132.81515 
     310   -17107.933            0     15.78839    121.07298 
     320   -17109.848            0    15.790796     111.0052 
     330   -17111.842            0    15.793198    102.65503 
     340   -17113.935            0    15.795603    95.972515 
     350   -17116.141            0    15.798017     93.81615 
     360   -17118.446            0    15.800431     88.29184 
     370   -17120.804            0    15.802744    91.660024 
     380   -17123.048            0    15.804823     101.8077 
     390    -17125.11            0    15.806636    116.94565 
     400   -17127.017            0    15.808232    136.56641 
     410    -17128.86            0    15.809697    161.78588 
     420   -17130.856            0    15.811191    197.86959 
     430   -17134.779            0    15.816259   -149.65211 
     440   -17136.406            0    15.817108   -72.285431 
     450    -17139.13            0    15.818305     86.92908 
     460   -17140.609            0    15.818712    202.23609 
     470   -17142.374            0    15.821269   -57.527229 
     480   -17144.159            0    15.821103    196.33134 
     490   -17145.507            0     15.82316   -23.664842 
     500   -17147.276            0    15.822368    356.43022 
     510   -17148.785            0    15.826055   -118.39249 
     520   -17149.845            0    15.824949    254.50233 
     530    -17150.68            0      15.8262    166.37361 
     540   -17152.302            0    15.829555   -119.54243 
     550   -17152.902            0    15.830409   -140.09525 
     560   -17153.459            0    15.831146   -139.23046 
     570   -17153.964            0    15.831833   -134.69259 
     580   -17154.556            0    15.832343   -69.711789 
     590   -17155.207            0    15.832601    60.976859 
     600   -17155.959            0    15.833469    121.11072 
     610   -17156.384            0     15.83503   -35.697541 
     620   -17156.912            0    15.835628    38.170085 
     630   -17157.476            0    15.836513    8.6305573 
     640   -17157.874            0    15.837073    11.510489 
     650   -17158.418            0    15.837321    107.73779 
     660   -17158.729            0    15.838642   -41.934362 
     670   -17159.064            0    15.839522   -110.05682 
     680   -17159.386            0    15.839591    -55.08003 
     690   -17159.755            0     15.83967    4.0604618 
     700   -17160.037            0    15.840671   -101.04777 
     710    -17160.37            0    15.840323    11.471282 
     720   -17160.708            0    15.839671    169.47211 
     730   -17161.059            0    15.841103   0.70251265 
     740   -17161.365            0    15.841509   -16.891971 
     750   -17161.689            0     15.84156    20.066995 
     760   -17162.005            0    15.841118     129.6598 
     770   -17162.332            0    15.842265   -5.3058392 
     780   -17162.661            0    15.841617     131.6506 
     790   -17162.988            0    15.842737   -2.2834564 
     800   -17163.319            0    15.842552    60.479564 
     810   -17163.634            0    15.843938   -116.54983 
     820   -17163.938            0    15.843644   -43.613128 
     830    -17164.26            0    15.843552   -1.1336265 
     840   -17164.569            0      15.8433    63.231449 
     850   -17164.883            0    15.844676   -116.30102 
     860    -17165.15            0    15.844007    4.1242917 
     870   -17165.467            0    15.843776      62.2804 
     880   -17165.775            0    15.845131   -116.25803 
     890   -17166.059            0    15.844299    26.408153 
     900   -17166.371            0    15.845388   -113.61969 
     910   -17166.672            0    15.844144    89.347858 
     920   -17166.985            0    15.844836     6.892237 
     930   -17167.231            0     15.84547   -71.554495 
     940   -17167.563            0     15.84436    111.20572 
     950    -17167.87            0    15.845189    6.5669462 
     960   -17168.157            0    15.846112   -112.40328 
     970   -17168.456            0    15.844759    101.89645 
     980   -17168.772            0    15.845558   0.35089302 
     990   -17169.056            0    15.846242   -83.452995 
    1000   -17169.361            0    15.845085    101.71665 
    1010   -17169.677            0    15.845825    5.6719518 
    1020   -17169.959            0    15.846446   -66.708951 
    1030   -17170.286            0    15.846254   -20.885242 
    1040   -17170.609            0    15.846028    20.215222 
    1050    -17170.89            0     15.84704   -111.01075 
    1060    -17171.19            0    15.845704    93.702776 
    1070   -17171.496            0     15.84628    36.540263 
    1080   -17171.849            0    15.845815    107.88016 
    1090    -17172.17            0    15.845609    154.14795 
    1100   -17172.467            0    15.846605     21.96256 
    1110    -17172.74            0    15.847582    -106.3347 
    1120   -17173.079            0    15.845621    197.39956 
    1130   -17173.384            0    15.847693   -93.354849 
    1140   -17173.687            0    15.847339   -50.344727 
    1150   -17173.979            0     15.84665    106.30107 
    1160    -17174.27            0    15.847188    19.942138 
    1170    -17174.54            0    15.848136   -108.75798 
    1180   -17174.835            0     15.84671    102.54772 
    1190   -17175.113            0    15.847026    76.847615 
    1200   -17175.361            0    15.848172   -81.046127 
    1210   -17175.652            0     15.84835   -94.679503 
    1220   -17175.935            0    15.847883   -15.752147 
    1230   -17176.239            0    15.847329    71.485222 
    1240    -17176.52            0    15.848086   0.71533331 
    1250   -17176.752            0    15.847639    51.859459 
    1260   -17177.049            0    15.848141   -8.0760552 
    1270   -17177.351            0    15.847797    53.642158 
    1280   -17177.611            0    15.848653   -58.089692 
    1290     -17177.9            0     15.84896   -90.324348 
    1300   -17178.172            0    15.847482    131.79152 
    1310    -17178.46            0    15.849063   -82.507569 
    1320   -17178.741            0    15.848721   -21.862972 
    1330   -17179.001            0    15.848021    88.445644 
    1340   -17179.305            0    15.849038   -43.867377 
    1350    -17179.59            0    15.849003   -28.873935 
    1360   -17179.886            0    15.849272   -47.572383 
    1370   -17180.146            0    15.847921    133.14053 
    1380   -17180.384            0    15.849098   -1.7611791 
    1390    -17180.66            0    15.848824    28.210654 
    1400   -17180.956            0    15.848617    73.513341 
    1410   -17181.192            0    15.849268   -9.6137959 
    1420    -17181.46            0    15.848765    85.240448 
    1430   -17181.711            0    15.849637   -37.973089 
    1440   -17181.993            0     15.84883    113.52569 
    1450   -17182.236            0    15.850108   -92.127371 
    1460   -17182.515            0    15.848808    127.77961 
    1470   -17182.792            0     15.84868    151.74285 
    1480   -17183.071            0    15.849405    47.401704 
    1490   -17183.311            0    15.850103   -39.325576 
    1500   -17183.574            0    15.849895    59.310568 
    1510    -17183.82            0    15.849093    49.019953 
    1520   -17184.065            0    15.850129    51.222782 
    1530   -17184.311            0    15.849209    46.729665 
    1540   -17184.555            0    15.850266    52.307999 
    1550   -17184.799            0    15.849351    47.577406 
    1560   -17185.041            0    15.850403    52.056227 
    1570   -17185.285            0    15.849493    47.290795 
    1580   -17185.526            0    15.850476    46.895901 
    1590   -17185.769            0    15.849542    43.036596 
    1600    -17186.01            0    15.850619    51.540936 
    1610   -17186.252            0    15.849686    47.612585 
    1620   -17186.493            0    15.850729    52.138496 
    1630   -17186.734            0    15.849828    46.922758 
    1640   -17186.974            0    15.850877    51.585698 
    1650   -17187.214            0     15.84996    46.821701 
    1660   -17187.452            0    15.850873    62.397138 
    1670   -17187.692            0    15.850063     48.38299 
    1680   -17187.931            0    15.851083    50.805353 
    1690    -17188.17            0    15.850188    45.544715 
    1700   -17188.409            0     15.85123    50.656741 
    1710   -17188.647            0     15.85032    45.748815 
    1720   -17188.884            0    15.851357    50.933876 
    1730   -17189.122            0    15.850456    45.533373 
    1740   -17189.359            0    15.851491    50.544018 
    1750   -17189.596            0    15.850589     45.26881 
    1760   -17189.831            0    15.851621    50.444948 
    1770   -17190.067            0    15.850722    45.189176 
    1780   -17190.302            0    15.851751    50.258468 
    1790   -17190.538            0    15.850855    44.792501 
    1800   -17190.758            0    15.851475    70.112092 
    1810   -17191.034            0     15.85252   -63.028559 
    1820   -17191.268            0    15.851925   -61.864143 
    1830     -17191.5            0    15.852671   -55.669626 
    1840   -17191.736            0    15.851988    -56.81038 
    1850   -17191.967            0    15.852755   -49.150235 
    1860   -17192.202            0    15.852068   -53.730795 
    1870   -17192.433            0    15.852893    -51.87746 
    1880   -17192.669            0    15.852533   -66.647497 
    1890   -17192.896            0    15.853283   -63.291715 
    1900   -17193.129            0    15.852628   -61.633357 
    1910   -17193.356            0     15.85342   -54.127073 
    1920   -17193.587            0    15.852708   -56.118687 
    1930   -17193.813            0    15.853556   -56.155811 
    1940   -17194.043            0    15.852829   -56.762336 
    1950    -17194.27            0    15.853854    -69.19355 
    1960   -17194.498            0     15.85388   -45.605611 
    1970   -17194.736            0    15.852454    136.46861 
    1980   -17195.048            0    15.853521   -30.862952 
    1990   -17195.296            0    15.853856   -71.421414 
    2000   -17195.513            0    15.853958    17.106677 
    2010   -17195.746            0    15.853876    -46.87263 
    2020    -17195.96            0    15.853492    31.264247 
    2030     -17196.2            0    15.854056    -62.19027 
    2040    -17196.44            0    15.854889   -109.00202 
    2050   -17196.652            0    15.853824   -48.545437 
    2060    -17196.87            0    15.854861   -43.586148 
    2070   -17197.089            0    15.854043   -52.114518 
    2080   -17197.305            0    15.855017   -63.786747 
    2090   -17197.522            0     15.85393    -43.50297 
    2100   -17197.738            0    15.854923   -50.102842 
    2110   -17197.957            0    15.853983   -44.323686 
    2120   -17198.193            0    15.854352    31.931279 
    2130   -17198.407            0    15.853931    65.751745 
    2140   -17198.618            0    15.854107    -77.03963 
    2150   -17198.834            0    15.854963   -65.552611 
    2160   -17199.048            0    15.854183   -61.975948 
    2170   -17199.266            0    15.854776   -46.443521 
    2180   -17199.483            0    15.854038   -72.798925 
    2190   -17199.697            0    15.854751   -62.019941 
    2200   -17199.916            0    15.853902   -57.524013 
    2210    -17200.14            0    15.855021   -66.085961 
    2220    -17200.36            0    15.853902   -31.908831 
    2230   -17200.577            0     15.85475   -34.340159 
    2240   -17200.792            0    15.853815    -33.30839 
    2250   -17200.991            0    15.854425   -32.543784 
    2260   -17201.201            0     15.85377   -50.211307 
    2270   -17201.437            0    15.854328     38.72992 
    2280   -17201.652            0    15.853262    35.571955 
    2290   -17201.867            0    15.854065    41.282379 
    2300   -17202.088            0    15.853162    35.773536 
    2310   -17202.305            0     15.85412     44.76781 
    2320   -17202.526            0    15.853303    47.012171 
    2330   -17202.741            0    15.854132    42.042217 
    2340   -17202.959            0    15.853218    35.936326 
    2350   -17203.174            0    15.854095    43.893348 
    2360   -17203.394            0    15.853202    44.307448 
    2370    -17203.61            0    15.854129    45.025388 
    2380   -17203.825            0    15.853283    35.667425 
    2390   -17204.039            0    15.854048    53.304934 
    2400   -17204.257            0     15.85325    48.617345 
    2410   -17204.472            0    15.854103     46.51743 
    2420    -17204.69            0    15.853259    43.550836 
    2430   -17204.909            0    15.854279    55.321352 
    2440   -17205.132            0    15.854958   -72.730839 
    2450   -17205.392            0    15.853283    123.93762 
    2460   -17205.605            0    15.854171   -14.057992 
    2470   -17205.822            0     15.85461   -76.220345 
    2480   -17206.049            0    15.853441    132.73978 
    2490    -17206.21            0     15.85321    128.23429 
    2500   -17206.393            0    15.854539    14.849655 
    2510   -17206.656            0    15.854364    109.04964 
    2520   -17206.845            0     15.85539   -37.891881 
    2530    -17207.02            0    15.855425    20.113417 
    2540   -17207.213            0    15.855588    -7.456947 
    2550   -17207.395            0    15.854385    34.776332 
    2560   -17207.545            0    15.855656     127.1174 
    2570   -17207.644            0    15.856147    54.283921 
    2580   -17207.787            0    15.858059   -165.50251 
    2590   -17208.024            0    15.858339   -173.15058 
    2600   -17208.106            0    15.857116    72.914528 
    2610   -17208.285            0     15.85875   -173.09838 
    2620   -17208.457            0    15.859324   -43.525485 
    2630   -17208.612            0    15.858346    140.84965 
    2640    -17208.72            0    15.859735   -116.51994 
    2650   -17208.823            0    15.858968    102.88374 
    2660   -17208.901            0    15.861022   -212.42681 
    2670   -17208.993            0    15.861434   -198.08757 
    2680   -17209.065            0    15.860561     68.82146 
    2690   -17209.146            0     15.86221   -99.670375 
    2700   -17209.233            0    15.861542   -45.369987 
    2710   -17209.314            0    15.861623    13.335125 
    2720    -17209.43            0    15.864306   -333.94415 
    2730   -17209.488            0    15.861037    289.04147 
    2740   -17209.537            0    15.862578    131.76174 
    2750   -17209.637            0    15.864542   -109.64148 
    2760   -17209.679            0    15.863045    109.11099 
    2770    -17209.74            0    15.864236   -11.952871 
    2780   -17209.793            0    15.866153   -137.50191 
    2790   -17209.845            0    15.863169    170.03856 
    2800   -17209.899            0     15.86391    -8.115175 
    2810   -17209.959            0    15.864421   -20.996035 
    2820   -17210.051            0    15.864863     118.7552 
    2830   -17210.083            0    15.865997   -76.584644 
    2840   -17210.139            0    15.864885    43.283806 
    2850   -17210.156            0    15.866004    8.8036991 
    2860    -17210.17            0    15.866517    6.4563923 
    2870   -17210.182            0    15.866899   -1.0861889 
    2880   -17210.195            0    15.868295   -39.043286 
    2890   -17210.213            0    15.867195    10.737525 
    2900   -17210.226            0    15.867735    3.4662711 
    2910   -17210.233            0     15.86716   -10.367404 
    2920   -17210.243            0      15.8671   -16.896908 
    2930   -17210.254            0    15.867469    2.9049165 
    2940   -17210.263            0    15.867243    15.524526 
    2950   -17210.271            0    15.867241    6.9251443 
    2960   -17210.278            0     15.86722   -9.6254623 
    2970   -17210.283            0    15.867644    5.2924017 
    2980   -17210.288            0    15.867956    14.445528 
    2990   -17210.292            0    15.868359    6.8545421 
    3000   -17210.297            0    15.868743   -19.588298 
    3010   -17210.301            0    15.868383   -6.5676034 
    3020   -17210.305            0     15.86788     8.583622 
    3030   -17210.309            0    15.867799    8.9850311 
    3040   -17210.312            0    15.868395 -0.083061813 
    3050   -17210.316            0    15.868867   -10.077378 
    3060    -17210.32            0    15.868656    3.8463268 
    3070   -17210.323            0    15.868264    4.6074974 
    3080   -17210.327            0    15.867922    7.9624369 
    3090    -17210.33            0    15.868144     2.659327 
    3100   -17210.333            0    15.868578    3.8729731 
    3110   -17210.336            0      15.8689    5.8741182 
    3120   -17210.339            0    15.868906    4.5443344 
    3130   -17210.342            0    15.868503  -0.25626528 
    3140   -17210.345            0    15.868159   -6.3872549 
    3150   -17210.348            0    15.868592   -6.4535226 
    3160   -17210.375            0    15.868231   -11.676427 
    3170   -17210.383            0    15.868464    10.694752 
    3180    -17210.39            0    15.868485    1.3085174 
    3190   -17210.394            0    15.868557    4.1653354 
    3200   -17210.396            0    15.868974   -5.8155236 
    3210   -17210.398            0    15.869202    1.1158996 
    3220     -17210.4            0    15.869015   -3.8358452 
    3230   -17210.402            0    15.868725   -2.8243802 
    3240   -17210.404            0    15.868483  0.053425077 
    3250   -17210.406            0    15.868521    -2.896017 
    3260   -17210.408            0    15.868371    20.012994 
    3270   -17210.409            0    15.868327    35.858014 
    3280   -17210.411            0    15.868298    50.079043 
    3290   -17210.412            0    15.868347    38.319414 
    3300   -17210.414            0    15.868488    25.667867 
    3310   -17210.415            0    15.868776    3.2802384 
    3320   -17210.417            0    15.869058    1.7743842 
    3330   -17210.418            0    15.869073    2.2531565 
    3340    -17210.42            0    15.868885    2.4872351 
    3350   -17210.421            0    15.868592    3.2178609 
    3360   -17210.423            0    15.868483    5.8394551 
    3370   -17210.424            0    15.868637    2.9177242 
    3380   -17210.425            0    15.868911    2.6399147 
    3390   -17210.427            0    15.869097    2.4687227 
    3400   -17210.428            0    15.869101  0.029708356 
    3410   -17210.429            0    15.868803    1.7138448 
    3420    -17210.43            0    15.868519    6.1005537 
    3430   -17210.432            0    15.868569    8.0213816 
    3440   -17210.433            0    15.868779    4.7348355 
    3450   -17210.434            0    15.869052    2.4023154 
    3460   -17210.435            0    15.869113     -5.62679 
    3470   -17210.437            0    15.869017    -5.750298 
    3480   -17210.438            0    15.868915   -6.9494753 
    3490   -17210.439            0    15.868673    2.7188992 
    3500    -17210.44            0    15.868516    8.4464883 
    3510   -17210.441            0    15.868613     2.042083 
    3520   -17210.442            0    15.868681    6.0500831 
    3530   -17210.443            0    15.868675     13.11128 
    3540   -17210.444            0    15.868705    10.810493 
    3550   -17210.445            0    15.868921    1.3719119 
    3560   -17210.446            0    15.869056      0.84707 
    3570   -17210.447            0    15.869143   -10.899686 
    3580   -17210.448            0    15.869179   -12.405883 
    3590   -17210.449            0    15.869161   -28.413223 
    3600    -17210.45            0    15.868883    4.0015255 
    3610    -17210.47            0    15.869404   -97.267769 
    3620   -17210.472            0    15.869148   -56.586611 
    3630   -17210.472            0    15.868984   -22.085317 
    3640   -17210.473            0    15.868819    22.784778 
    3650   -17210.474            0    15.868635    73.788163 
    3660   -17210.475            0    15.868751    41.033935 
    3670   -17210.476            0    15.869112   -45.944102 
    3680   -17210.477            0    15.869131   -49.019605 
    3690   -17210.478            0    15.868753    24.810352 
    3700   -17210.481            0    15.868817    41.442068 
    3710   -17210.484            0    15.869503   -109.90831 
    3720   -17210.486            0     15.86872    28.067734 
    3730   -17210.487            0    15.868795    32.063969 
    3740   -17210.488            0    15.868713     41.55361 
    3747   -17210.488            0    15.868745    37.554818 
Loop time of 249.668 on 1 procs for 3747 steps with 148 atoms

99.8% CPU use with 1 MPI tasks x 1 OpenMP threads

Minimization stats:
  Stopping criterion = linesearch alpha is zero
  Energy initial, next-to-last, final = 
     -16971.1903720661  -17210.4879014035  -17210.4878777828
  Force two-norm initial, final = 6055.5815 3.6906532
  Force max component initial, final = 3693.8808 2.9154846
  Final line search alpha, max atom move = 7.5755837e-10 2.2086497e-09
  Iterations, force evaluations = 3747 4788

MPI task timing breakdown:
Section |  min time  |  avg time  |  max time  |%varavg| %total
---------------------------------------------------------------
Pair    | 239.33     | 239.33     | 239.33     |   0.0 | 95.86
Neigh   | 0.013237   | 0.013237   | 0.013237   |   0.0 |  0.01
Comm    | 0.084216   | 0.084216   | 0.084216   |   0.0 |  0.03
Output  | 0.02377    | 0.02377    | 0.02377    |   0.0 |  0.01
Modify  | 9.9019     | 9.9019     | 9.9019     |   0.0 |  3.97
Other   |            | 0.3134     |            |       |  0.13

Nlocal:        148.000 ave         148 max         148 min
Histogram: 1 0 0 0 0 0 0 0 0 0
Nghost:        3326.00 ave        3326 max        3326 min
Histogram: 1 0 0 0 0 0 0 0 0 0
Neighs:        51835.0 ave       51835 max       51835 min
Histogram: 1 0 0 0 0 0 0 0 0 0

Total # of neighbors = 51835
Ave neighs/atom = 350.23649
Neighbor list builds = 1
Dangerous builds = 0

velocity all create 1200.0 4928459 rot yes dist gaussian

dump  1  all atom 50  cy.lammpstrj

fix   3  all  nvt  temp  1200   1200  50
run 10000
Per MPI rank memory allocation (min/avg/max) = 909.1 | 909.1 | 909.1 Mbytes
Step PotEng Temp Lx Press 
    3747   -17210.488         1200    15.868745    9073.3169 
    3750   -17120.266    997.11008    15.868745    17168.302 
    3760    -16980.34    688.89519    15.868745    31119.018 
    3770   -16987.585    739.25872    15.868745    28495.805 
    3780   -16878.964    536.82407    15.868745    31614.549 
    3790   -16850.093    505.31396    15.868745    36780.185 
    3800   -16852.577    545.19467    15.868745    35762.385 
    3810   -16879.402     648.1792    15.868745    33233.364 
    3820   -16862.285    656.68025    15.868745    31865.531 
    3830   -16831.554    637.35826    15.868745    35120.839 
    3840    -16823.67    672.13463    15.868745    31706.898 
    3850   -16816.047    713.81776    15.868745    36504.963 
    3860   -16807.566    753.34656    15.868745    41991.107 
    3870   -16804.342    812.68213    15.868745    40063.102 
    3880   -16800.399    868.43513    15.868745    40084.169 
    3890   -16774.132    878.80227    15.868745    42927.961 
    3900    -16731.77    847.20734    15.868745    41531.022 
    3910   -16763.262    988.92613    15.868745    43139.216 
    3920   -16709.723    937.04647    15.868745    45346.063 
    3930    -16706.58    1000.8845    15.868745    46640.576 
    3940   -16746.359    1166.3769    15.868745    48753.785 
    3950   -16729.786    1196.2566    15.868745    47948.016 
    3960   -16703.694    1197.9371    15.868745    48976.788 
    3970    -16696.24    1239.9729    15.868745    50480.306 
    3980   -16599.842    1071.1424    15.868745    50872.044 
    3990   -16585.886    1089.0147    15.868745    55003.827 
    4000   -16620.489    1221.1406    15.868745    54681.645 
    4010   -16571.328    1159.5748    15.868745    53473.812 
    4020   -16570.566    1210.7051    15.868745     55597.18 
    4030   -16556.551    1225.8702    15.868745    55315.589 
    4040   -16588.425     1336.156    15.868745     58154.87 
    4050   -16589.337    1369.4137    15.868745    60649.761 
    4060   -16526.766    1248.3578    15.868745    58825.421 
    4070   -16543.347    1297.2738    15.868745    58398.552 
    4080   -16533.489    1281.0512    15.868745    57138.397 
    4090   -16520.721    1250.2923    15.868745    49395.994 
    4100   -16501.121     1199.506    15.868745    61811.579 
    4110   -16478.834    1144.6871    15.868745    57741.092 
    4120   -16444.811    1068.5677    15.868745    62149.781 
    4130   -16493.636    1186.9304    15.868745    58551.759 
    4140   -16527.844    1274.7215    15.868745    59766.682 
    4150   -16582.635    1399.8359    15.868745    60642.547 
    4160   -16539.853    1291.2099    15.868745    68421.742 
    4170   -16576.208    1350.9206    15.868745    53355.925 
    4180   -16552.849    1260.1321    15.868745    58289.939 
    4190   -16569.761    1262.6129    15.868745    53601.954 
    4200    -16597.53    1282.1983    15.868745    56733.292 
    4210    -16581.04    1201.4771    15.868745    62149.976 
    4220   -16597.128    1200.4702    15.868745    57135.801 
    4230   -16652.356    1286.8922    15.868745    56057.117 
    4240   -16645.497    1227.3023    15.868745     59363.29 
    4250   -16658.248    1214.8559    15.868745    56202.377 
    4260   -16678.359    1221.8986    15.868745    50738.322 
    4270   -16694.399    1222.0751    15.868745    44329.164 
    4280    -16659.47    1110.6734    15.868745    49576.815 
    4290   -16604.419    961.02893    15.868745    51091.523 
    4300    -16636.81    1022.9512    15.868745    50061.564 
    4310   -16648.287    1049.6816    15.868745    58420.559 
    4320   -16644.445    1053.4739    15.868745    52966.308 
    4330   -16644.436    1076.5658    15.868745    54693.057 
    4340   -16646.159    1113.3807    15.868745    55524.366 
    4350   -16585.873    1016.2299    15.868745    52587.409 
    4360   -16607.562    1109.4755    15.868745    56807.216 
    4370   -16618.788    1184.0976    15.868745    53379.901 
    4380   -16612.755    1214.1383    15.868745    57847.884 
    4390   -16610.424    1247.8551    15.868745    50034.116 
    4400   -16572.427     1192.948    15.868745    59922.994 
    4410   -16572.703    1219.3319    15.868745    63869.241 
    4420   -16614.351    1335.0201    15.868745    58444.879 
    4430   -16551.657    1208.2074    15.868745     54021.11 
    4440    -16576.88    1279.4198    15.868745    58212.384 
    4450   -16537.211    1194.8794    15.868745    62159.472 
    4460   -16626.613    1399.5766    15.868745    53460.651 
    4470   -16620.266    1369.9047    15.868745    56812.113 
    4480    -16537.82    1154.5053    15.868745    53445.787 
    4490    -16570.99    1204.0708    15.868745    52654.407 
    4500   -16582.938    1206.8362    15.868745    57827.431 
    4510   -16569.206    1150.9489    15.868745    65136.825 
    4520   -16558.761    1108.0802    15.868745    64653.677 
    4530   -16629.473    1254.1662    15.868745    59156.166 
    4540   -16644.097    1265.9511    15.868745    56250.908 
    4550   -16595.046    1128.7622    15.868745    56349.409 
    4560   -16648.694    1224.6897    15.868745    58905.384 
    4570   -16631.526    1164.1331    15.868745    58043.165 
    4580   -16625.741    1133.4339    15.868745    55228.987 
    4590   -16566.417    985.73122    15.868745    57936.317 
    4600   -16621.772    1111.8407    15.868745    48778.651 
    4610    -16634.01    1148.6747    15.868745    48199.477 
    4620   -16636.244    1168.9482    15.868745    53501.878 
    4630   -16578.635     1061.566    15.868745    54886.342 
    4640   -16592.767    1128.4174    15.868745    55408.073 
    4650    -16654.14    1313.4576    15.868745    51395.853 
    4660    -16551.55    1123.7987    15.868745    59207.919 
    4670   -16587.975    1245.8427    15.868745    54180.374 
    4680   -16571.932    1239.3809    15.868745    65923.728 
    4690   -16602.385    1329.4062    15.868745    60668.159 
    4700   -16514.875    1142.3913    15.868745    65659.752 
    4710   -16581.461    1302.2531    15.868745    61558.459 
    4720   -16573.057    1281.7183    15.868745    59627.994 
    4730   -16593.572     1320.854    15.868745    62583.656 
    4740    -16545.93    1203.3259    15.868745    66402.403 
    4750   -16561.379    1225.7067    15.868745    49434.122 
    4760   -16620.853    1341.9712    15.868745    54405.976 
    4770   -16562.752    1185.7254    15.868745    62166.722 
    4780   -16513.319    1055.4217    15.868745    60136.351 
    4790   -16567.075    1168.2368    15.868745     60740.54 
    4800   -16551.587    1128.6757    15.868745    53953.183 
    4810   -16562.674    1153.2838    15.868745    56870.273 
    4820   -16589.355    1218.2837    15.868745    56966.195 
    4830   -16562.396    1161.5945    15.868745    54301.144 
    4840   -16528.121     1091.147    15.868745     58292.21 
    4850   -16629.615    1337.3736    15.868745    54426.367 
    4860   -16535.189    1135.7762    15.868745    62850.516 
    4870   -16547.259    1182.5147    15.868745    61209.202 
    4880   -16589.044    1309.9301    15.868745    55861.209 
    4890   -16565.714    1298.3954    15.868745    60302.702 
    4900   -16593.049    1401.6143    15.868745    63640.851 
    4910    -16595.59     1443.248    15.868745    61647.355 
    4920   -16591.401     1456.317    15.868745    63430.123 
    4930   -16561.749    1391.1994    15.868745    64319.705 
    4940   -16558.617    1360.8564    15.868745    64630.071 
    4950   -16572.734     1349.254    15.868745     60446.36 
    4960   -16568.194     1282.388    15.868745    59185.745 
    4970   -16595.466    1287.2253    15.868745    58236.665 
    4980   -16558.618    1156.2333    15.868745    55486.838 
    4990   -16544.612    1097.0893    15.868745    57004.727 
    5000   -16531.074     1052.801    15.868745     59340.25 
    5010    -16566.26    1129.8462    15.868745    57854.131 
    5020   -16583.595    1171.2002    15.868745    55926.635 
    5030   -16580.872    1169.4773    15.868745    56162.199 
    5040    -16640.55    1309.1112    15.868745    48220.208 
    5050     -16619.9    1260.1878    15.868745    50085.286 
    5060   -16596.179    1198.5929    15.868745    57952.665 
    5070    -16623.77    1250.0834    15.868745    56531.809 
    5080   -16591.827    1162.1205    15.868745    59793.186 
    5090   -16593.277    1153.5038    15.868745    55307.117 
    5100   -16580.933    1118.3255    15.868745    57055.971 
    5110   -16583.741    1123.0942    15.868745    55355.836 
    5120   -16638.295    1248.7763    15.868745    60213.103 
    5130   -16609.476    1185.1675    15.868745    51584.473 
    5140   -16635.545    1247.9155    15.868745    53979.651 
    5150   -16601.424    1173.5395    15.868745    56235.032 
    5160   -16583.387    1135.6224    15.868745    54513.478 
    5170    -16596.14    1169.7067    15.868745     55268.64 
    5180   -16638.938    1275.8276    15.868745    51075.969 
    5190   -16580.755     1152.587    15.868745    56996.043 
    5200   -16627.655    1273.2522    15.868745     58227.35 
    5210    -16634.19    1298.6708    15.868745    56039.672 
    5220   -16621.842    1273.5237    15.868745    49893.605 
    5230   -16598.588     1219.198    15.868745    56269.124 
    5240   -16577.976     1172.737    15.868745    54023.039 
    5250   -16603.122    1231.2602    15.868745    59434.043 
    5260   -16594.636    1209.4878    15.868745    59403.314 
    5270   -16549.363    1107.1927    15.868745    55155.335 
    5280   -16576.492    1175.2419    15.868745    58863.567 
    5290   -16556.862    1141.2478    15.868745     53002.98 
    5300   -16492.547    1012.0086    15.868745    54841.024 
    5310   -16523.125    1111.1108    15.868745    61033.493 
    5320   -16521.541    1149.8165    15.868745    58108.183 
    5330   -16546.034    1252.0217    15.868745    54530.597 
    5340    -16526.74    1246.7405    15.868745    56541.397 
    5350   -16586.063    1409.9359    15.868745    57759.428 
    5360   -16548.503    1335.3734    15.868745    63362.647 
    5370   -16487.711    1196.6066    15.868745    63409.846 
    5380   -16512.067    1246.8177    15.868745    58156.534 
    5390   -16556.212     1338.454    15.868745    58068.425 
    5400   -16589.983    1394.2725    15.868745    64776.893 
    5410   -16562.516    1297.4441    15.868745    49563.911 
    5420   -16623.109    1391.6919    15.868745    51693.906 
    5430   -16587.199    1258.8495    15.868745    60579.254 
    5440   -16617.605    1287.2591    15.868745    49778.035 
    5450   -16576.617    1166.1304    15.868745    56842.973 
    5460   -16572.019    1139.5495    15.868745    51729.337 
    5470   -16589.826    1170.9105    15.868745    52364.046 
    5480   -16528.474    1027.0104    15.868745    61908.196 
    5490     -16580.6    1150.2567    15.868745    53444.685 
    5500   -16564.378    1124.8699    15.868745    58178.299 
    5510   -16529.377    1061.6651    15.868745    65933.672 
    5520   -16568.838    1176.2914    15.868745    58833.016 
    5530   -16616.258    1309.8076    15.868745    57076.927 
    5540    -16610.96    1319.7491    15.868745    56980.857 
    5550   -16575.067    1253.9152    15.868745    58948.431 
    5560   -16611.794    1345.0642    15.868745    59127.732 
    5570    -16568.67     1243.652    15.868745    52481.606 
    5580   -16561.735     1221.191    15.868745    65461.039 
    5590     -16586.1    1265.1613    15.868745    61959.698 
    5600   -16576.093     1223.921    15.868745    58982.083 
    5610   -16621.728    1304.3122    15.868745    54226.814 
    5620   -16605.744    1235.1387    15.868745    62422.624 
    5630   -16578.775    1130.9891    15.868745    58727.832 
    5640   -16587.463     1107.764    15.868745    55707.264 
    5650   -16632.565    1172.8188    15.868745     51338.94 
    5660   -16598.249    1066.3059    15.868745    60114.367 
    5670   -16646.448    1157.4549    15.868745    59945.085 
    5680    -16679.42    1217.9406    15.868745     49794.21 
    5690   -16639.914    1115.8937    15.868745    56436.844 
    5700   -16642.963    1117.7244    15.868745    55021.655 
    5710   -16643.116    1120.3116    15.868745    59329.064 
    5720   -16643.932    1129.7035    15.868745    60848.003 
    5730   -16655.711    1169.3129    15.868745    57927.914 
    5740   -16680.842    1238.8212    15.868745    51983.561 
    5750   -16611.212      1088.61    15.868745    58464.678 
    5760   -16650.242    1187.4761    15.868745    49913.631 
    5770   -16639.753     1172.492    15.868745    56393.204 
    5780   -16533.498     942.0447    15.868745    55934.471 
    5790   -16606.205    1124.8046    15.868745    53545.704 
    5800   -16587.859    1103.4771    15.868745    56921.216 
    5810   -16635.665    1230.3773    15.868745    49206.743 
    5820   -16594.361    1154.4948    15.868745     52177.84 
    5830   -16638.715    1270.8683    15.868745    51139.545 
    5840   -16620.709    1239.6955    15.868745    54799.269 
    5850   -16581.593    1155.4595    15.868745     62288.99 
    5860   -16607.155    1219.0875    15.868745    60267.698 
    5870   -16581.124    1165.3886    15.868745    63271.553 
    5880   -16563.835    1132.7146    15.868745    55389.652 
    5890   -16612.151    1256.1758    15.868745    58378.732 
    5900   -16602.827    1243.7172    15.868745    50097.318 
    5910    -16584.02    1207.5368    15.868745    57585.695 
    5920   -16570.944    1188.2435    15.868745    57453.065 
    5930   -16565.922    1188.5122    15.868745    60910.256 
    5940    -16563.69    1195.4137    15.868745     62834.43 
    5950   -16541.426    1160.7049    15.868745    67133.037 
    5960   -16567.699    1242.9744    15.868745    61728.274 
    5970   -16583.018    1305.5338    15.868745    56436.358 
    5980   -16505.655    1154.2265    15.868745    56984.336 
    5990   -16546.395    1276.8961    15.868745    52661.502 
    6000   -16508.108     1223.644    15.868745    61169.753 
    6010   -16481.442    1191.2924    15.868745    69885.339 
    6020   -16496.191    1255.5122    15.868745    59797.362 
    6030   -16553.315    1411.0337    15.868745    61729.263 
    6040   -16500.813    1303.3244    15.868745    62226.714 
    6050   -16543.904    1399.4246    15.868745    57467.021 
    6060   -16536.005    1366.2196    15.868745    61694.651 
    6070   -16474.939    1197.2348    15.868745    61055.442 
    6080   -16523.714    1269.1274    15.868745     58701.16 
    6090   -16508.905    1193.0392    15.868745    65600.621 
    6100   -16538.825    1220.2079    15.868745    62706.785 
    6110   -16577.337    1268.4772    15.868745     54851.98 
    6120   -16605.255      1292.33    15.868745    57545.955 
    6130   -16570.231    1177.8535    15.868745    57520.973 
    6140   -16592.326    1206.7899    15.868745    58760.768 
    6150   -16588.415    1183.1911    15.868745    58888.967 
    6160   -16613.036    1228.1593    15.868745    58787.722 
    6170   -16595.808    1179.9045    15.868745    58989.715 
    6180   -16618.625     1225.324    15.868745    57920.186 
    6190   -16662.079    1314.3486    15.868745    53387.078 
    6200   -16604.174     1169.174    15.868745    60871.684 
    6210   -16617.244    1185.8848    15.868745    55271.766 
    6220   -16577.297    1084.2107    15.868745    53505.728 
    6230   -16635.458    1209.0432    15.868745    59598.101 
    6240   -16619.301    1167.5483    15.868745    52564.606 
    6250   -16611.297    1148.8883    15.868745    57504.904 
    6260   -16644.472    1225.7246    15.868745    45870.577 
    6270   -16627.621    1189.1129    15.868745    52410.609 
    6280   -16573.459    1069.7666    15.868745    61779.574 
    6290   -16591.536    1121.6325    15.868745    62261.799 
    6300   -16589.423    1136.8849    15.868745    62919.118 
    6310   -16594.257    1178.1834    15.868745      62777.8 
    6320    -16573.17    1172.3834    15.868745    56279.016 
    6330   -16573.618    1225.9587    15.868745    52365.649 
    6340   -16607.548    1348.1275    15.868745    60576.803 
    6350   -16556.006    1262.2187    15.868745    64821.355 
    6360   -16513.313    1182.0538    15.868745    62246.617 
    6370   -16595.018    1380.2242    15.868745    53406.961 
    6380   -16528.324    1233.7258    15.868745    64702.677 
    6390   -16537.671    1253.2245    15.868745    57516.795 
    6400   -16585.928     1351.384    15.868745    53209.706 
    6410   -16552.657    1255.1136    15.868745    55003.071 
    6420   -16576.438    1282.9317    15.868745    58364.646 
    6430   -16583.798    1265.3281    15.868745    55335.171 
    6440   -16570.883    1203.6992    15.868745     59601.89 
    6450   -16580.576    1194.5062    15.868745    61333.706 
    6460   -16597.251    1204.4462    15.868745    58538.728 
    6470   -16608.243    1211.0534    15.868745     59216.19 
    6480   -16613.953    1213.3938    15.868745    60641.116 
    6490   -16628.091    1235.8415    15.868745    49906.509 
    6500    -16594.72    1150.7361    15.868745    52390.479 
    6510   -16557.271    1063.8699    15.868745    57455.301 
    6520   -16568.896    1095.4107    15.868745     51231.35 
    6530   -16615.015    1208.8073    15.868745    56512.825 
    6540   -16612.344    1211.3868    15.868745    44205.703 
    6550   -16574.667    1136.2263    15.868745    58803.818 
    6560   -16611.491    1229.1897    15.868745    60867.797 
    6570   -16580.104    1168.8193    15.868745    62398.828 
    6580   -16579.984    1179.0965    15.868745    62830.199 
    6590   -16594.668    1223.0322    15.868745    57391.325 
    6600   -16626.197    1304.4465    15.868745    52763.421 
    6610   -16551.567      1143.62    15.868745     63712.91 
    6620   -16580.812    1220.3572    15.868745    63028.272 
    6630    -16558.59    1176.1932    15.868745    67317.931 
    6640   -16560.702    1193.4081    15.868745    62974.514 
    6650   -16564.048    1221.3969    15.868745    63966.257 
    6660   -16589.185    1305.6764    15.868745    59517.749 
    6670   -16570.003    1294.6315    15.868745     56314.34 
    6680   -16530.375    1237.0936    15.868745    60400.418 
    6690   -16548.157    1305.2963    15.868745    65487.115 
    6700   -16483.757    1181.7661    15.868745    66406.145 
    6710   -16535.983    1322.0228    15.868745    61645.876 
    6720   -16563.607    1401.3193    15.868745    56204.229 
    6730   -16516.346    1297.3826    15.868745     59793.32 
    6740    -16549.07    1365.0654    15.868745    57884.966 
    6750   -16525.649    1291.0492    15.868745    62294.362 
    6760   -16514.193     1234.392    15.868745    65466.121 
    6770    -16536.12     1245.655    15.868745    61407.939 
    6780   -16534.136    1202.4922    15.868745    65431.742 
    6790   -16585.713    1276.5929    15.868745    58636.896 
    6800   -16530.721    1113.9597    15.868745    62922.369 
    6810   -16621.454    1291.3423    15.868745    59805.688 
    6820   -16571.682    1148.8781    15.868745    62817.926 
    6830   -16583.383    1157.9252    15.868745    61610.656 
    6840    -16613.22    1212.6884    15.868745    59559.864 
    6850   -16584.802    1138.2901    15.868745    66068.514 
    6860   -16646.437     1274.515    15.868745    62239.016 
    6870    -16650.16    1273.9736    15.868745    57555.644 
    6880   -16628.538    1210.9855    15.868745    56873.584 
    6890   -16614.051    1167.7804    15.868745    56968.427 
    6900   -16647.428    1236.1325    15.868745    56104.902 
    6910   -16589.914    1100.1116    15.868745    60866.069 
    6920   -16626.036    1179.2872    15.868745    52985.411 
    6930    -16606.21    1135.0481    15.868745    55373.343 
    6940   -16590.658    1107.7467    15.868745      61186.2 
    6950   -16603.774    1155.0396    15.868745    60222.653 
    6960    -16582.84    1133.0681    15.868745    63429.578 
    6970    -16600.13    1209.7979    15.868745    63157.335 
    6980   -16593.296    1245.3809    15.868745    56172.571 
    6990   -16590.276    1290.4123    15.868745     56612.08 
    7000   -16551.953    1248.1011    15.868745    61582.104 
    7010   -16599.737    1388.5318    15.868745    61419.224 
    7020   -16506.496    1195.6152    15.868745    61903.114 
    7030   -16574.394    1360.5433    15.868745    56898.825 
    7040   -16530.551     1260.582    15.868745    60825.037 
    7050    -16568.69    1341.0923    15.868745    58179.192 
    7060   -16561.802     1308.398    15.868745    65336.376 
    7070   -16527.467    1212.3766    15.868745    58632.387 
    7080   -16533.973    1214.5212    15.868745    60829.863 
    7090   -16517.572    1169.0266    15.868745    64801.922 
    7100   -16564.242    1267.8055    15.868745    57235.577 
    7110   -16536.791    1193.7454    15.868745    66162.886 
    7120    -16540.33    1192.7004    15.868745     63382.84 
    7130   -16573.017    1256.2183    15.868745    57066.739 
    7140   -16570.698    1238.2751    15.868745    58021.888 
    7150    -16555.04    1188.7823    15.868745    54433.346 
    7160   -16558.407    1183.6103    15.868745    54954.687 
    7170   -16599.327    1259.2065    15.868745    59213.469 
    7180   -16573.484    1180.3314    15.868745    58201.704 
    7190   -16562.386    1135.3652    15.868745    57430.479 
    7200   -16614.682    1237.2288    15.868745    55321.834 
    7210   -16561.959    1098.2581    15.868745    60843.747 
    7220   -16613.279    1196.4254    15.868745    62248.369 
    7230   -16599.895    1142.2079    15.868745    58373.846 
    7240   -16645.412    1214.2853    15.868745    59501.722 
    7250   -16637.693    1152.1837    15.868745    52464.107 
    7260   -16641.009    1113.0509    15.868745    60416.052 
    7270   -16644.721    1077.9871    15.868745    54600.851 
    7280   -16645.598     1050.121    15.868745    59503.518 
    7290   -16668.675    1085.4625    15.868745    57723.525 
    7300   -16665.681    1071.9973    15.868745    49410.917 
    7310   -16627.545    988.61476    15.868745    59374.575 
    7320   -16663.691    1085.3997    15.868745    57349.227 
    7330   -16638.894    1052.7137    15.868745    54633.666 
    7340   -16632.751      1066.98    15.868745    52051.942 
    7350   -16632.478    1099.3104    15.868745    56963.238 
    7360   -16616.457    1097.2594    15.868745    50812.353 
    7370   -16645.175    1190.3792    15.868745    59899.494 
    7380   -16675.902    1279.1074    15.868745    53786.249 
    7390   -16603.474     1123.753    15.868745    55513.555 
    7400   -16624.054    1178.9166    15.868745    61025.097 
    7410   -16619.253    1178.7474    15.868745     61194.29 
    7420   -16594.524     1134.613    15.868745    59702.722 
    7430   -16610.928    1186.7367    15.868745     59424.27 
    7440   -16576.454    1121.7895    15.868745    59071.504 
    7450   -16622.546    1244.6279    15.868745    60038.048 
    7460   -16602.315    1218.0032    15.868745     56258.39 
    7470   -16542.909    1099.8113    15.868745    54826.925 
    7480   -16568.597    1181.5505    15.868745    58326.795 
    7490   -16594.382      1268.53    15.868745    61874.314 
    7500   -16581.512    1262.5995    15.868745    63380.906 
    7510   -16533.374    1174.3119    15.868745    60608.215 
    7520   -16570.174    1278.9031    15.868745    56134.642 
    7530   -16572.326    1301.5024    15.868745     55229.26 
    7540   -16578.018    1321.8912    15.868745     54843.86 
    7550   -16512.296    1173.5476    15.868745    64456.339 
    7560   -16566.628    1297.8822    15.868745    63260.454 
    7570   -16567.954    1294.5891    15.868745    55736.367 
    7580   -16530.999    1198.3059    15.868745    60029.587 
    7590   -16532.599    1182.3407    15.868745    66079.876 
    7600   -16575.198     1246.837    15.868745    61541.597 
    7610   -16573.652    1199.2674    15.868745    49341.586 
    7620   -16614.998    1245.0483    15.868745    58263.511 
    7630   -16629.552    1222.4841    15.868745    54631.699 
    7640   -16592.746    1093.5925    15.868745    54412.922 
    7650   -16624.477    1134.7402    15.868745    53187.983 
    7660   -16671.144    1220.3125    15.868745    55179.747 
    7670   -16648.739     1151.532    15.868745     51733.96 
    7680   -16634.307    1105.7796    15.868745    51120.362 
    7690   -16670.344    1181.2601    15.868745    54607.747 
    7700   -16667.789    1171.6869    15.868745    54007.803 
    7710   -16656.715    1144.3697    15.868745     54933.88 
    7720   -16622.502    1070.4734    15.868745    50535.657 
    7730   -16619.537    1076.1462    15.868745    52126.208 
    7740    -16622.88    1104.6779    15.868745    59624.725 
    7750   -16621.965    1135.9315    15.868745    57325.351 
    7760   -16644.931    1228.0799    15.868745    50075.058 
    7770   -16600.554     1166.398    15.868745    56622.164 
    7780   -16597.812     1196.969    15.868745    60750.279 
    7790   -16593.581    1215.8686    15.868745    61977.115 
    7800   -16626.436    1312.0989    15.868745    51476.365 
    7810   -16564.207    1180.5319    15.868745    55319.009 
    7820   -16593.928    1253.6562    15.868745    56514.785 
    7830   -16558.545    1176.4287    15.868745     59756.46 
    7840   -16597.335    1264.6993    15.868745    59589.274 
    7850   -16559.163    1174.6929    15.868745    57691.528 
    7860   -16574.301    1207.7158    15.868745    58331.371 
    7870    -16594.51    1251.2894    15.868745     63329.21 
    7880   -16579.347    1210.3241    15.868745    53869.215 
    7890   -16603.169    1254.0745    15.868745    47748.612 
    7900   -16556.928     1137.741    15.868745    61663.264 
    7910   -16585.516    1194.8582    15.868745    62528.381 
    7920   -16598.871    1216.5117    15.868745    57026.699 
    7930   -16552.537    1103.3337    15.868745     62070.36 
    7940   -16640.682    1296.7337    15.868745    56750.706 
    7950   -16641.804    1279.4427    15.868745     49834.76 
    7960   -16626.116    1206.9754    15.868745    54055.398 
    7970   -16572.858    1042.0066    15.868745    58995.033 
    7980   -16633.676    1135.1853    15.868745    54657.331 
    7990   -16630.619    1086.4983    15.868745    57456.715 
    8000   -16621.418    1036.8751    15.868745    49034.464 
    8010   -16651.116    1089.1813    15.868745    50468.525 
    8020   -16690.954     1174.026    15.868745    50637.659 
    8030   -16637.551    1050.3936    15.868745    51462.978 
    8040   -16670.979    1131.7023    15.868745    54014.837 
    8050   -16681.927    1169.1125    15.868745    51661.297 
    8060   -16682.407    1186.7965    15.868745     60099.28 
    8070   -16677.476    1195.4908    15.868745    52404.559 
    8080    -16678.97    1220.2348    15.868745    52207.253 
    8090   -16609.142    1083.9553    15.868745    57237.713 
    8100   -16608.724    1116.8064    15.868745    56165.321 
    8110   -16614.432    1173.0608    15.868745    52667.608 
    8120   -16579.334    1148.1938    15.868745     58680.46 
    8130   -16568.496    1174.3398    15.868745    57883.769 
    8140   -16572.491    1215.2337    15.868745    59009.535 
    8150   -16580.587    1250.9065    15.868745    56080.824 
    8160   -16574.802    1243.9057    15.868745    58924.686 
    8170   -16592.463    1285.6198    15.868745    53865.373 
    8180   -16524.107    1129.6029    15.868745    56997.431 
    8190   -16571.935    1239.0904    15.868745    58359.549 
    8200   -16569.936    1233.6582    15.868745    57081.404 
    8210   -16537.834     1154.702    15.868745    59159.407 
    8220    -16606.21    1302.7125    15.868745    56412.022 
    8230   -16587.126    1243.9119    15.868745    56367.399 
    8240   -16562.707    1171.8852    15.868745    62212.312 
    8250   -16557.136    1144.2511    15.868745    58527.937 
    8260   -16603.827    1232.4579    15.868745    58049.362 
    8270   -16608.157    1226.3221    15.868745    53060.026 
    8280    -16572.57    1128.9559    15.868745    56076.851 
    8290   -16636.811    1255.7983    15.868745     56864.49 
    8300   -16659.771    1279.5783    15.868745    51066.912 
    8310    -16619.62    1153.9006    15.868745    55487.689 
    8320   -16667.254    1227.7804    15.868745    52057.234 
    8330   -16664.503    1185.9912    15.868745    51640.603 
    8340   -16642.987    1109.5402    15.868745    52620.479 
    8350   -16637.791    1079.9713    15.868745    52865.949 
    8360   -16657.792    1115.6878    15.868745    49087.472 
    8370   -16652.746    1100.8038    15.868745    46820.572 
    8380   -16638.849     1072.817    15.868745    50428.878 
    8390    -16609.89    1020.8716    15.868745    54444.578 
    8400   -16656.635    1152.5463    15.868745    50955.795 
    8410   -16621.748    1106.1413    15.868745    53883.807 
    8420   -16645.748    1198.4007    15.868745     61908.39 
    8430   -16611.906    1152.1159    15.868745    56031.456 
    8440   -16668.768    1303.8997    15.868745    51587.127 
    8450   -16636.912    1242.5247    15.868745    51850.225 
    8460   -16595.246     1151.493    15.868745    49361.199 
    8470   -16591.144      1147.07    15.868745    53329.247 
    8480   -16590.835    1154.4325    15.868745    57828.629 
    8490   -16568.016    1110.8297    15.868745    55263.355 
    8500   -16638.212    1282.2488    15.868745     53756.15 
    8510    -16616.27    1241.5234    15.868745    58216.985 
    8520   -16633.199    1284.8518    15.868745     55721.95 
    8530   -16627.175    1270.7059    15.868745    51756.579 
    8540   -16615.891     1239.335    15.868745    51214.302 
    8550    -16603.48    1201.9177    15.868745    52802.369 
    8560   -16606.415    1200.2628    15.868745    52842.539 
    8570   -16607.164    1191.5968    15.868745    56312.426 
    8580   -16643.618    1260.9275    15.868745    56383.088 
    8590   -16604.028    1153.4806    15.868745    50700.098 
    8600   -16630.929    1195.6933    15.868745    55067.114 
    8610   -16626.402    1162.3121    15.868745    50095.109 
    8620   -16631.979    1150.8809    15.868745    54790.632 
    8630   -16626.062    1115.3087    15.868745    50275.729 
    8640   -16621.195    1087.5729    15.868745     46625.64 
    8650   -16602.714    1032.5294    15.868745    48526.859 
    8660    -16641.59    1114.4126    15.868745    55803.083 
    8670   -16649.648    1135.5308    15.868745    51263.986 
    8680   -16595.747    1023.4635    15.868745    52724.734 
    8690   -16627.911    1122.7876    15.868745    51306.114 
    8700   -16649.361    1216.8533    15.868745    55315.959 
    8710   -16608.736    1171.8776    15.868745    53975.136 
    8720   -16677.194    1374.8426    15.868745    45312.367 
    8730   -16657.086    1365.4533    15.868745    49606.603 
    8740    -16593.29    1238.8212    15.868745    51378.434 
    8750   -16631.524    1335.4884    15.868745    56241.208 
    8760   -16591.745     1243.571    15.868745    62343.353 
    8770   -16604.283    1264.8791    15.868745     57018.48 
    8780   -16589.227    1219.2774    15.868745    58019.946 
    8790   -16591.661    1212.1129    15.868745    62882.069 
    8800   -16579.892    1174.2274    15.868745     53539.49 
    8810   -16619.464    1249.3907    15.868745    53386.652 
    8820   -16557.039    1091.9885    15.868745    54264.725 
    8830   -16569.308    1111.1147    15.868745    48887.627 
    8840   -16560.744    1089.2364    15.868745    56828.912 
    8850   -16564.021     1099.959    15.868745    56966.105 
    8860    -16567.42    1118.1771    15.868745    51319.645 
    8870   -16607.628    1237.7445    15.868745    54594.888 
    8880   -16597.452      1259.99    15.868745    60077.711 
    8890   -16542.146    1187.0273    15.868745    56311.315 
    8900   -16564.767    1291.7137    15.868745    58596.442 
    8910   -16563.347    1328.4314    15.868745    63017.503 
    8920   -16549.061     1326.705    15.868745    60536.924 
    8930    -16599.69    1457.1997    15.868745    56550.883 
    8940   -16502.779    1237.5162    15.868745    60401.577 
    8950   -16539.092    1313.8069    15.868745    61867.337 
    8960   -16550.156    1318.5036    15.868745    62290.267 
    8970   -16572.796    1336.6065    15.868745    52894.368 
    8980   -16557.965     1270.543    15.868745    56264.887 
    8990   -16564.095    1249.7133    15.868745    56777.362 
    9000   -16604.919    1301.7655    15.868745     53020.32 
    9010   -16559.877    1161.6022    15.868745    54502.795 
    9020   -16577.329    1172.0216    15.868745    61070.026 
    9030   -16572.177    1144.5891    15.868745    61137.863 
    9040   -16558.388    1105.1499    15.868745     59091.43 
    9050   -16571.676    1134.8716    15.868745    62475.571 
    9060   -16630.313    1273.3797    15.868745    55113.322 
    9070   -16555.463    1107.3563    15.868745    49312.817 
    9080   -16607.511    1227.3649    15.868745    51042.762 
    9090   -16632.166      1283.89    15.868745    57415.666 
    9100   -16582.824    1169.5115    15.868745    56188.701 
    9110   -16603.399    1216.0738    15.868745    59456.783 
    9120   -16617.188    1247.6706    15.868745    51348.925 
    9130   -16594.165    1189.7461    15.868745    48430.552 
    9140   -16616.017    1229.4782    15.868745    55166.068 
    9150   -16672.621    1341.3375    15.868745    53775.903 
    9160   -16624.028    1200.9329    15.868745    59906.451 
    9170   -16609.677    1132.5702    15.868745    56942.143 
    9180   -16607.596    1089.7971    15.868745    60408.232 
    9190    -16637.68    1120.4259    15.868745    53156.557 
    9200   -16641.249    1094.9231    15.868745    53969.183 
    9210   -16654.274     1093.048    15.868745    52745.393 
    9220   -16647.634    1058.9208    15.868745    52462.743 
    9230   -16664.209     1088.853    15.868745    46345.667 
    9240    -16639.86     1032.851    15.868745    57212.189 
    9250   -16649.812    1064.5371    15.868745    56119.522 
    9260   -16664.328    1116.1513    15.868745    47371.771 
    9270   -16665.738     1148.853    15.868745    53279.431 
    9280   -16598.128    1034.8286    15.868745    56292.391 
    9290    -16636.33    1167.0684    15.868745    58673.693 
    9300   -16667.414     1281.127    15.868745    53834.085 
    9310   -16635.213    1235.3933    15.868745    52535.619 
    9320    -16621.33    1217.6249    15.868745    60801.589 
    9330   -16637.644    1261.2659    15.868745    54374.324 
    9340   -16585.897    1144.2877    15.868745    55950.033 
    9350   -16623.893     1231.458    15.868745     56384.21 
    9360   -16635.741     1260.499    15.868745    57576.321 
    9370   -16594.156     1165.482    15.868745    57259.201 
    9380   -16594.791    1166.3316    15.868745    52757.275 
    9390   -16620.219    1227.7606    15.868745    52721.431 
    9400   -16597.004    1180.7022    15.868745    57204.362 
    9410    -16534.62    1047.5255    15.868745    56349.177 
    9420   -16614.195     1243.835    15.868745    52699.091 
    9430   -16605.697    1242.7174    15.868745    59522.915 
    9440   -16573.401    1188.4591    15.868745    58232.893 
    9450   -16594.964    1258.4974    15.868745    58181.281 
    9460   -16608.366     1306.447    15.868745    56485.303 
    9470   -16580.226    1255.2874    15.868745    56902.858 
    9480     -16551.3    1198.0479    15.868745    56130.584 
    9490   -16521.346    1137.7831    15.868745    67107.808 
    9500   -16561.926    1242.5582    15.868745    59806.853 
    9510   -16531.643    1189.9716    15.868745    55270.088 
    9520   -16554.641    1261.2259    15.868745    60536.141 
    9530   -16591.512    1362.8721    15.868745    61750.311 
    9540   -16548.086    1276.7712    15.868745    58050.464 
    9550    -16551.08    1290.0058    15.868745    55556.126 
    9560   -16544.086    1271.9493    15.868745    61185.844 
    9570   -16518.189    1202.2687    15.868745    59082.013 
    9580   -16584.165    1335.7216    15.868745     53571.56 
    9590   -16524.525    1170.3084    15.868745    58737.698 
    9600    -16548.34    1191.3472    15.868745     58703.46 
    9610   -16606.881    1285.6372    15.868745    58072.273 
    9620   -16624.714    1279.8899    15.868745    58605.286 
    9630   -16572.201    1115.3903    15.868745    58367.826 
    9640   -16616.739    1186.0347    15.868745    57123.208 
    9650   -16603.994    1135.9548    15.868745     60804.95 
    9660   -16621.925    1160.9432    15.868745    53814.446 
    9670   -16581.738    1059.4665    15.868745    59854.232 
    9680    -16650.47    1214.1874    15.868745    51485.779 
    9690   -16587.011    1072.6129    15.868745    57318.493 
    9700   -16635.138    1187.9412    15.868745    52285.558 
    9710    -16627.46     1179.349    15.868745    51474.183 
    9720   -16630.666    1199.5065    15.868745    53515.362 
    9730   -16603.919    1151.0053    15.868745    44752.617 
    9740   -16657.077    1287.6908    15.868745     54138.51 
    9750   -16635.344    1255.7189    15.868745    56318.021 
    9760   -16598.419    1188.4911    15.868745    56500.299 
    9770   -16587.364    1185.3078    15.868745    58439.955 
    9780   -16567.183    1171.1015    15.868745    56367.381 
    9790   -16574.122    1230.3199    15.868745    59404.244 
    9800   -16591.202    1324.7739    15.868745    55308.636 
    9810   -16580.553      1351.22    15.868745    58027.666 
    9820   -16581.738    1389.7379    15.868745    57256.262 
    9830   -16579.497    1396.9186    15.868745    60146.467 
    9840   -16540.252    1300.9902    15.868745    54411.262 
    9850   -16529.555    1261.4801    15.868745     48928.52 
    9860   -16503.306     1183.583    15.868745    59538.303 
    9870   -16563.663    1304.6564    15.868745    58539.074 
    9880   -16492.149    1122.0129    15.868745    59428.703 
    9890   -16550.373    1242.7837    15.868745    56844.013 
    9900   -16552.873    1235.9023    15.868745     58543.57 
    9910    -16522.31    1152.8405    15.868745    59453.609 
    9920   -16592.554    1299.5488    15.868745    54963.161 
    9930   -16579.216    1252.6763    15.868745    61410.216 
    9940   -16604.271    1293.1041    15.868745    54565.999 
    9950   -16651.108    1378.5931    15.868745    51574.349 
    9960   -16573.931     1182.019    15.868745    56958.284 
    9970   -16596.919    1220.3998    15.868745    51637.682 
    9980    -16606.35    1231.4361    15.868745    52879.807 
    9990    -16556.36    1111.5119    15.868745    56875.397 
   10000   -16618.195     1250.318    15.868745    53757.848 
   10010   -16608.247    1227.2785    15.868745    47535.539 
   10020   -16546.217    1086.0833    15.868745    55232.101 
   10030   -16636.823    1296.1722    15.868745    55098.823 
   10040    -16616.98     1250.818    15.868745    53163.304 
   10050   -16591.451    1187.9597    15.868745    60141.262 
   10060   -16542.001    1073.6694    15.868745    54677.249 
   10070   -16595.153    1199.3053    15.868745    58831.268 
   10080   -16582.196    1178.8129    15.868745    63635.854 
   10090    -16565.14    1153.6379    15.868745    66963.419 
   10100   -16551.548    1141.7937    15.868745    63248.276 
   10110   -16628.749    1344.3085    15.868745    56392.218 
   10120   -16598.238    1297.4347    15.868745    59311.421 
   10130   -16534.061    1169.9728    15.868745     49216.92 
   10140   -16569.862    1270.1179    15.868745    53230.981 
   10150   -16566.549     1277.586    15.868745    51352.445 
   10160   -16496.232    1130.1828    15.868745    56049.596 
   10170   -16534.581    1236.7849    15.868745    59079.743 
   10180   -16530.874    1252.5176    15.868745    62437.677 
   10190   -16517.722       1245.9    15.868745    56335.849 
   10200   -16576.728    1408.4411    15.868745    57680.775 
   10210   -16537.584    1338.3777    15.868745    66666.542 
   10220   -16538.593    1346.5646    15.868745    66823.622 
   10230   -16576.115    1431.0365    15.868745    58385.018 
   10240   -16520.299    1284.6658    15.868745    61830.294 
   10250   -16493.093    1189.5876    15.868745    62875.072 
   10260   -16574.483    1328.6882    15.868745    57026.076 
   10270   -16547.378    1212.2666    15.868745     58315.11 
   10280   -16538.385    1146.7772    15.868745    58690.151 
   10290   -16570.801    1187.8366    15.868745    59188.651 
   10300    -16549.91    1119.1888    15.868745    54039.092 
   10310   -16533.446    1071.6004    15.868745    63857.939 
   10320    -16593.77     1205.456    15.868745    59561.616 
   10330   -16569.963    1149.1902    15.868745    55176.391 
   10340   -16613.958    1249.8113    15.868745    52067.327 
   10350    -16583.11    1179.1949    15.868745    59524.534 
   10360   -16588.877    1187.0362    15.868745     54727.04 
   10370   -16627.417    1269.3048    15.868745    48280.361 
   10380   -16592.854    1184.0311    15.868745    54661.942 
   10390   -16607.377    1211.0147    15.868745     52383.54 
   10400   -16538.903    1048.3626    15.868745    58556.121 
   10410   -16607.062    1201.9274    15.868745    59551.916 
   10420   -16610.066    1212.1114    15.868745    56688.885 
   10430   -16570.706    1131.6453    15.868745    56669.483 
   10440   -16609.797    1241.1744    15.868745    56122.338 
   10450   -16604.079    1250.5454    15.868745    60795.795 
   10460   -16590.237    1244.9132    15.868745    62586.138 
   10470   -16616.781    1335.1686    15.868745    58294.721 
   10480   -16585.469    1288.1651    15.868745    55874.193 
   10490   -16565.887    1259.7928    15.868745    59494.473 
   10500   -16546.149    1227.5934    15.868745    59144.357 
   10510    -16578.92    1314.1403    15.868745    51674.519 
   10520     -16533.6    1213.8362    15.868745    60985.927 
   10530   -16588.044    1335.2951    15.868745    61651.794 
   10540   -16579.047    1302.7548    15.868745      53274.2 
   10550   -16592.411    1308.3799    15.868745    53745.134 
   10560   -16601.238    1287.9284    15.868745     54668.34 
   10570   -16556.898    1143.7676    15.868745    50045.596 
   10580   -16593.155    1185.1543    15.868745    54477.998 
   10590   -16625.527     1221.689    15.868745    53438.014 
   10600   -16618.683    1172.6248    15.868745    52587.524 
   10610   -16569.832    1041.9529    15.868745    58501.275 
   10620   -16641.645    1194.1454    15.868745    54573.306 
   10630   -16643.431    1190.5343    15.868745    47536.907 
   10640   -16602.596    1092.9505    15.868745    55107.848 
   10650   -16629.941    1156.0665    15.868745    50772.803 
   10660   -16633.382    1171.4149    15.868745    54284.406 
   10670   -16658.136    1235.8095    15.868745    46150.914 
   10680   -16631.662     1179.968    15.868745    46250.386 
   10690   -16579.325    1069.0368    15.868745    54395.045 
   10700   -16587.666    1103.5029    15.868745    58221.527 
   10710   -16617.326     1194.546    15.868745    56481.546 
   10720   -16567.706    1111.3692    15.868745    55186.283 
   10730   -16572.614    1161.1384    15.868745    59428.618 
   10740    -16590.51    1245.9439    15.868745    59923.555 
   10750   -16590.187    1284.5261    15.868745    59905.711 
   10760   -16573.227    1272.2834    15.868745    62046.803 
   10770   -16541.465    1214.0615    15.868745     57220.03 
   10780   -16562.683    1269.7384    15.868745    64344.745 
   10790   -16585.085    1321.0622    15.868745    58612.405 
   10800   -16598.305    1340.4943    15.868745    61470.582 
   10810   -16586.486    1297.0722    15.868745    57333.099 
   10820   -16537.109    1168.9059    15.868745    64470.357 
   10830   -16602.597    1303.0529    15.868745    63571.119 
   10840   -16595.872    1269.4285    15.868745    58200.426 
   10850   -16593.409    1241.8564    15.868745    61411.387 
   10860   -16586.298    1202.5059    15.868745    59135.466 
   10870   -16617.997    1252.8637    15.868745    51175.488 
   10880   -16621.895    1239.3299    15.868745    54268.836 
   10890   -16587.054    1137.0536    15.868745    58886.528 
   10900   -16572.436    1084.2091    15.868745    56349.085 
   10910   -16571.258     1070.665    15.868745    52510.111 
   10920   -16615.619    1167.1696    15.868745    45277.564 
   10930   -16597.488    1124.8598    15.868745    53932.727 
   10940   -16576.113     1082.958    15.868745    56978.113 
   10950   -16622.718    1205.3677    15.868745    53975.704 
   10960   -16605.044    1182.9464    15.868745    55955.413 
   10970   -16618.783    1240.8381    15.868745    56006.184 
   10980   -16554.164     1127.843    15.868745    61161.187 
   10990   -16624.875    1332.1332    15.868745    56442.354 
   11000   -16560.649    1235.1996    15.868745    63857.315 
   11010   -16523.465    1200.6191    15.868745    66058.216 
   11020   -16528.669    1257.3991    15.868745    62583.198 
   11030   -16559.903    1360.6666    15.868745    66285.891 
   11040   -16559.188    1374.0064    15.868745    63998.113 
   11050   -16514.763    1273.9165    15.868745    62775.851 
   11060   -16542.492    1326.9177    15.868745    59434.639 
   11070   -16498.144    1208.3187    15.868745    63835.548 
   11080   -16532.716    1270.9035    15.868745    57803.356 
   11090   -16534.651    1258.8956    15.868745    63623.081 
   11100    -16536.25    1248.2654    15.868745    63298.408 
   11110   -16561.348    1283.7108    15.868745    62288.635 
   11120   -16569.722    1276.7359    15.868745    59813.919 
   11130   -16566.891    1245.4081    15.868745     61451.85 
   11140   -16627.377     1357.598    15.868745    52922.202 
   11150   -16574.583    1207.6652    15.868745    61174.155 
   11160   -16640.005    1325.4616    15.868745    56460.494 
   11170   -16632.568    1275.6914    15.868745    57638.211 
   11180   -16631.907    1244.2054    15.868745    60418.242 
   11190    -16599.52    1146.5479    15.868745    53977.266 
   11200   -16648.548    1242.8224    15.868745    56517.565 
   11210   -16613.996    1149.9632    15.868745      58438.2 
   11220     -16633.9    1183.9811    15.868745     55865.71 
   11230    -16617.96    1139.5045    15.868745    54383.315 
   11240    -16576.43    1041.8528    15.868745     59954.15 
   11250   -16608.976    1121.9225    15.868745    53991.365 
   11260   -16650.171    1228.3458    15.868745    52488.669 
   11270   -16533.177    979.19332    15.868745     53159.82 
   11280    -16627.49    1222.9664    15.868745    60398.799 
   11290   -16608.588    1210.6228    15.868745    59322.013 
   11300   -16545.176    1093.9945    15.868745    61321.486 
   11310   -16611.466    1272.8715    15.868745    58797.615 
   11320   -16612.187    1298.0235    15.868745    60884.819 
   11330   -16557.997    1189.7409    15.868745     62499.22 
   11340   -16578.792    1248.5603    15.868745    63433.953 
   11350     -16568.2    1231.4208    15.868745    61940.659 
   11360   -16546.861    1187.1258    15.868745    65825.192 
   11370   -16630.956    1380.0478    15.868745     60065.62 
   11380   -16605.641    1312.7068    15.868745    60354.821 
   11390   -16549.832     1172.139    15.868745    59449.839 
   11400   -16638.675    1360.5855    15.868745    54964.355 
   11410   -16547.111    1133.4655    15.868745    60392.037 
   11420   -16622.176     1292.536    15.868745    61592.849 
   11430   -16622.655    1277.6668    15.868745    61830.475 
   11440   -16592.853    1191.6625    15.868745     61964.57 
   11450   -16569.893    1126.0626    15.868745    51294.146 
   11460   -16605.971    1197.0607    15.868745    55231.122 
   11470   -16576.406    1123.9234    15.868745    54352.667 
   11480   -16606.383    1192.6807    15.868745    47014.139 
   11490   -16599.435    1180.6106    15.868745    53089.374 
   11500     -16573.9    1129.4286    15.868745     59764.68 
   11510   -16566.717    1123.2768    15.868745    62811.202 
   11520   -16607.395    1230.7712    15.868745    59652.022 
   11530   -16602.279    1233.2002    15.868745    56506.515 
   11540   -16592.259    1224.2932    15.868745    57890.132 
   11550   -16581.601    1219.4868    15.868745    53925.707 
   11560   -16543.093    1158.2191    15.868745    67833.457 
   11570    -16542.93    1196.5116    15.868745    63394.342 
   11580   -16594.388    1370.2148    15.868745    57628.467 
   11590   -16547.097    1316.0384    15.868745    62378.796 
   11600    -16561.12    1383.1473    15.868745    49561.335 
   11610   -16507.059    1280.2556    15.868745    70899.814 
   11620   -16492.984    1259.7219    15.868745    70417.074 
   11630   -16513.529    1312.5259    15.868745    63117.235 
   11640   -16524.908    1332.8948    15.868745    66822.638 
   11650   -16525.227    1317.9323    15.868745    66183.893 
   11660   -16560.925     1372.833    15.868745    61370.676 
   11670   -16572.821    1351.1004    15.868745    54888.766 
   11680   -16549.356    1240.2153    15.868745    60540.976 
   11690   -16537.961    1165.1341    15.868745    64909.877 
   11700   -16596.356    1263.1983    15.868745    58356.841 
   11710   -16590.552    1226.1757    15.868745    62913.468 
   11720   -16602.086    1237.6114    15.868745    56512.946 
   11730   -16589.967    1197.9587    15.868745    57240.664 
   11740   -16562.465    1124.2797    15.868745    57700.138 
   11750   -16591.909    1185.3604    15.868745    62813.507 
   11760   -16590.323    1180.1237    15.868745    58830.027 
   11770   -16623.671    1257.7247    15.868745    58881.107 
   11780   -16578.979    1151.8642    15.868745    62394.519 
   11790   -16643.013     1294.034    15.868745    60400.467 
   11800   -16625.419    1246.5153    15.868745     57215.02 
   11810   -16662.317    1316.3756    15.868745    55896.498 
   11820   -16588.125    1127.3297    15.868745    47056.031 
   11830   -16596.649    1125.9192    15.868745    55867.879 
   11840   -16638.867    1201.9973    15.868745    48556.241 
   11850   -16644.095    1193.3555    15.868745    43777.006 
   11860   -16576.007    1020.2132    15.868745    54416.113 
   11870   -16630.107    1135.5711    15.868745      56248.1 
   11880   -16634.865    1144.4486    15.868745    48848.998 
   11890   -16577.558    1017.1704    15.868745    51902.806 
   11900   -16632.343    1157.8385    15.868745    53185.882 
   11910   -16626.584    1170.6876    15.868745    59099.087 
   11920   -16618.408    1189.1828    15.868745    57201.907 
   11930   -16588.861    1169.8639    15.868745    55814.118 
   11940   -16578.158    1194.5443    15.868745    52126.485 
   11950   -16573.703    1229.6216    15.868745    60038.077 
   11960   -16545.353    1197.1124    15.868745     66005.96 
   11970   -16623.661    1399.5276    15.868745    55368.096 
   11980   -16569.393     1285.918    15.868745    63973.117 
   11990   -16508.078    1148.8243    15.868745     59715.39 
   12000   -16561.119    1269.2581    15.868745    56582.295 
   12010   -16561.664    1267.7266    15.868745    60905.204 
   12020   -16569.917    1276.4467    15.868745      59615.7 
   12030    -16560.02    1239.1742    15.868745    59100.724 
   12040   -16578.614    1262.9333    15.868745     52310.65 
   12050   -16537.532    1150.0416    15.868745    61906.566 
   12060    -16603.75    1279.1359    15.868745    60942.023 
   12070    -16584.34    1212.3204    15.868745    60535.622 
   12080   -16575.128    1168.3437    15.868745    63471.245 
   12090    -16602.46    1209.0656    15.868745    63121.846 
   12100   -16611.106    1206.1671    15.868745    58227.123 
   12110    -16606.97    1170.7537    15.868745    50637.442 
   12120   -16640.719    1223.1783    15.868745    52208.223 
   12130   -16586.373    1076.3573    15.868745    54159.026 
   12140   -16606.562    1105.7053    15.868745    57145.881 
   12150   -16594.147     1067.625    15.868745    55710.222 
   12160   -16599.323    1076.3614    15.868745    57099.401 
   12170   -16642.437    1179.6773    15.868745     51167.39 
   12180   -16629.743    1169.7773    15.868745    55254.728 
   12190   -16615.685    1172.0271    15.868745    60571.657 
   12200    -16615.39    1221.8605    15.868745    63289.259 
   12210   -16552.391    1134.4145    15.868745    61757.494 
   12220    -16602.27    1306.7904    15.868745    63263.297 
   12230   -16574.897    1283.9837    15.868745    64639.812 
   12240   -16543.426    1237.4757    15.868745    69510.077 
   12250   -16568.153    1313.0055    15.868745    56387.364 
   12260   -16551.524    1283.3424    15.868745    58145.294 
   12270   -16579.657    1345.0723    15.868745    55070.934 
   12280   -16529.928    1222.8292    15.868745    66904.833 
   12290   -16559.425    1276.4729    15.868745    60818.654 
   12300   -16556.665    1248.2594    15.868745    61079.511 
   12310   -16581.393    1275.6029    15.868745    55673.674 
   12320    -16582.77     1241.092    15.868745    51909.319 
   12330   -16594.792    1229.6141    15.868745    55296.783 
   12340   -16597.586     1200.284    15.868745    58552.708 
   12350   -16572.633    1114.1995    15.868745    58627.043 
   12360   -16561.755    1072.5138    15.868745     53182.37 
   12370   -16592.981    1135.9294    15.868745    61012.729 
   12380   -16619.836    1192.2019    15.868745    47800.549 
   12390   -16603.905    1155.6485    15.868745    57302.043 
   12400   -16612.079    1175.8404    15.868745    57520.548 
   12410   -16666.539    1298.6316    15.868745    50671.125 
   12420   -16622.136    1193.6462    15.868745    55196.497 
   12430   -16599.989    1137.6319    15.868745    57888.188 
   12440   -16632.232    1207.3699    15.868745    55655.863 
   12450    -16585.89     1101.422    15.868745    51391.351 
   12460   -16635.379    1218.4265    15.868745    55908.617 
   12470   -16636.547     1226.001    15.868745    55679.207 
   12480   -16630.016    1216.8218    15.868745    55619.443 
   12490   -16615.809    1192.5209    15.868745    55210.659 
   12500   -16648.409    1277.3993    15.868745    49300.956 
   12510    -16611.53    1204.3074    15.868745     60194.18 
   12520   -16596.122    1181.9067    15.868745    55522.268 
   12530   -16583.907    1169.4483    15.868745    60416.966 
   12540   -16631.765    1296.4077    15.868745    53878.891 
   12550   -16637.528    1322.6189    15.868745    49952.831 
   12560   -16598.088      1240.18    15.868745    54538.065 
   12570   -16568.515    1182.8008    15.868745    55717.686 
   12580   -16537.798    1122.0277    15.868745    65480.433 
   12590     -16593.3     1260.462    15.868745    62280.206 
   12600   -16584.387    1251.1034    15.868745    59547.242 
   12610   -16594.178    1281.7946    15.868745    55825.834 
   12620   -16595.126     1289.825    15.868745    57941.664 
   12630   -16557.601    1202.8289    15.868745    57425.076 
   12640   -16565.397    1212.2112    15.868745    56179.078 
   12650   -16570.265    1217.9435    15.868745    57585.685 
   12660   -16535.191    1130.8918    15.868745    61959.955 
   12670   -16504.785      1054.04    15.868745    59220.269 
   12680   -16641.389    1359.7308    15.868745    52970.095 
   12690   -16542.221    1121.7283    15.868745    50528.432 
   12700   -16566.135    1165.8224    15.868745    50899.739 
   12710   -16599.238    1229.6539    15.868745    55656.217 
   12720   -16542.957     1089.089    15.868745    56627.359 
   12730   -16600.479    1209.5917    15.868745    57464.063 
   12740   -16594.336    1182.5108    15.868745    54789.456 
   12750   -16583.621    1144.0077    15.868745    56554.274 
   12760   -16618.365    1207.8824    15.868745    51844.597 
   12770    -16601.83    1151.8691    15.868745    62045.227 
   12780   -16628.193    1192.9561    15.868745    62130.988 
   12790   -16648.678    1219.3093    15.868745    58204.986 
   12800   -16621.257    1130.9467    15.868745    53122.764 
   12810   -16654.346    1181.9786    15.868745    51097.523 
   12820   -16630.424    1103.2389    15.868745    52432.729 
   12830   -16614.052    1048.5569    15.868745     62545.28 
   12840   -16614.563    1042.1256    15.868745    60382.516 
   12850   -16584.776    978.53202    15.868745    52699.553 
   12860   -16629.968    1099.5186    15.868745    51044.818 
   12870   -16631.478    1136.0769    15.868745     53561.67 
   12880   -16621.188    1156.9697    15.868745    48547.423 
   12890   -16640.149    1248.0179    15.868745    54410.841 
   12900   -16650.566    1309.9013    15.868745    59487.315 
   12910   -16589.948    1198.9098    15.868745    53033.023 
   12920   -16619.808    1283.8518    15.868745    56621.534 
   12930   -16607.324    1263.9542    15.868745    53490.354 
   12940   -16586.817    1219.7501    15.868745    61490.745 
   12950   -16574.001    1191.9342    15.868745    57229.566 
   12960   -16560.865    1161.5123    15.868745    52628.198 
   12970   -16601.116    1254.7639    15.868745    52693.825 
   12980   -16567.629     1176.717    15.868745    48782.926 
   12990   -16550.845    1138.7716    15.868745    54724.462 
   13000   -16588.154    1225.4848    15.868745    45926.095 
   13010   -16548.716    1137.5628    15.868745    61524.422 
   13020   -16581.033    1216.4758    15.868745    58634.305 
   13030   -16584.669    1230.0248    15.868745    54814.393 
   13040   -16564.366    1188.6268    15.868745    54893.598 
   13050   -16551.473    1165.8391    15.868745    55705.718 
   13060   -16577.699    1234.0138    15.868745    53242.394 
   13070   -16550.791    1183.3597    15.868745    42077.542 
   13080   -16575.593    1254.2006    15.868745    52230.244 
   13090   -16608.754    1352.4123    15.868745    50933.978 
   13100   -16531.462    1202.0218    15.868745    63892.396 
   13110   -16500.741    1164.4207    15.868745    62073.393 
   13120   -16525.826    1268.6361    15.868745     53386.06 
   13130   -16539.124    1352.1216    15.868745    59131.438 
   13140   -16507.586    1318.9997    15.868745    61645.651 
   13150   -16498.775    1327.9774    15.868745    56291.689 
   13160   -16466.215    1268.6193    15.868745    65986.149 
   13170   -16464.867    1270.8342    15.868745    56661.063 
   13180   -16519.526    1395.0192    15.868745    48858.885 
   13190   -16470.947     1273.408    15.868745    60344.176 
   13200   -16536.269    1394.3711    15.868745    50965.675 
   13210   -16508.955    1291.6639    15.868745    51527.316 
   13220   -16504.512    1238.6113    15.868745    58445.896 
   13230   -16534.179    1260.5888    15.868745    53727.808 
   13240   -16521.375    1189.7853    15.868745    62863.247 
   13250   -16553.698    1230.4996    15.868745     46757.71 
   13260   -16582.511    1270.3245    15.868745     56676.88 
   13270   -16560.369    1197.3075    15.868745    56204.578 
   13280   -16577.007    1219.7079    15.868745    60995.188 
   13290   -16533.534    1109.1598    15.868745    57590.275 
   13300   -16577.939     1199.943    15.868745    58818.241 
   13310   -16622.327    1290.8792    15.868745    55041.923 
   13320   -16638.528    1311.0781    15.868745    58625.742 
   13330   -16620.244    1249.8549    15.868745    56763.564 
   13340   -16616.259    1216.4223    15.868745    55847.165 
   13350   -16607.933    1172.5396    15.868745    51664.058 
   13360   -16660.507    1269.0894    15.868745    50384.534 
   13370   -16632.052    1179.5251    15.868745    45896.217 
   13380   -16634.498    1160.3254    15.868745    51423.081 
   13390   -16631.866    1133.3386    15.868745    58973.016 
   13400   -16662.789    1189.8624    15.868745    54908.449 
   13410   -16678.227    1213.7092    15.868745    50608.474 
   13420   -16631.618    1099.5142    15.868745    58133.076 
   13430    -16662.49    1166.6696    15.868745    49732.042 
   13440   -16617.638    1063.9672    15.868745    53211.593 
   13450   -16685.357    1223.3517    15.868745    53623.476 
   13460   -16617.917     1082.542    15.868745    55025.032 
   13470   -16665.932    1215.2837    15.868745    53175.928 
   13480   -16620.249    1152.1222    15.868745    51276.451 
   13490   -16616.916     1213.973    15.868745    58444.359 
   13500   -16568.459    1174.5045    15.868745    56865.987 
   13510   -16587.017    1274.5366    15.868745    57762.196 
   13520   -16584.543    1304.1602    15.868745    62494.713 
   13530    -16554.88    1254.8991    15.868745    63610.661 
   13540   -16543.592    1240.2246    15.868745     62189.73 
   13550   -16515.508    1182.7114    15.868745    60206.057 
   13560   -16531.246    1221.3359    15.868745    59149.418 
   13570   -16580.798    1335.0899    15.868745      59551.1 
   13580   -16581.179    1326.3377    15.868745    53052.657 
   13590   -16581.055    1306.5381    15.868745     60393.19 
   13600   -16597.593    1312.0036    15.868745    56566.453 
   13610   -16593.998    1264.8733    15.868745    58346.626 
   13620   -16586.464    1208.9145    15.868745    52890.065 
   13630   -16610.545    1223.9886    15.868745    53648.971 
   13640   -16603.951    1175.8115    15.868745    58523.193 
   13650   -16593.844     1127.503    15.868745    54060.191 
   13660   -16618.093    1169.1742    15.868745    50114.962 
   13670   -16570.653    1053.6762    15.868745    58090.671 
   13680   -16584.602    1083.8271    15.868745    59116.008 
   13690   -16574.542    1069.9785    15.868745    51369.026 
   13700    -16602.16     1149.625    15.868745     55988.47 
   13710   -16633.544    1242.7029    15.868745    52163.234 
   13720   -16632.444    1261.9812    15.868745    42901.853 
   13730   -16621.605    1255.2753    15.868745    57526.886 
   13740   -16587.359    1188.0009    15.868745    57311.937 
   13747   -16591.819    1202.9622    15.868745    56738.441 
Loop time of 525.246 on 1 procs for 10000 steps with 148 atoms

Performance: 1.645 ns/day, 14.590 hours/ns, 19.039 timesteps/s
99.8% CPU use with 1 MPI tasks x 1 OpenMP threads

MPI task timing breakdown:
Section |  min time  |  avg time  |  max time  |%varavg| %total
---------------------------------------------------------------
Pair    | 503.64     | 503.64     | 503.64     |   0.0 | 95.89
Neigh   | 0.024587   | 0.024587   | 0.024587   |   0.0 |  0.00
Comm    | 0.18724    | 0.18724    | 0.18724    |   0.0 |  0.04
Output  | 0.1045     | 0.1045     | 0.1045     |   0.0 |  0.02
Modify  | 21.204     | 21.204     | 21.204     |   0.0 |  4.04
Other   |            | 0.08466    |            |       |  0.02

Nlocal:        148.000 ave         148 max         148 min
Histogram: 1 0 0 0 0 0 0 0 0 0
Nghost:        3239.00 ave        3239 max        3239 min
Histogram: 1 0 0 0 0 0 0 0 0 0
Neighs:        51367.0 ave       51367 max       51367 min
Histogram: 1 0 0 0 0 0 0 0 0 0

Total # of neighbors = 51367
Ave neighs/atom = 347.07432
Neighbor list builds = 2
Dangerous builds = 0





Please see the log.cite file for references relevant to this simulation

Total wall time: 0:12:55
