ITEM: TIMESTEP
3750
ITEM: NUMBER OF ATOMS
148
ITEM: BOX BOUNDS xy xz yz pp pp pp
-7.9050788080789571e+00 1.5897976839853738e+01 -7.9342340878060806e+00
4.1552054596688447e-02 1.3760385002751736e+01 -7.6510419127339183e-05
4.9854437147133684e-01 1.2725265398528256e+01 8.4589473483544404e-03
ITEM: ATOMS id type xs ys zs
1 1 0.0684918 0.134449 0.249807
2 1 0.134195 0.0670281 0.749137
3 2 0.134322 0.066778 0.381601
4 2 0.0704609 0.138959 0.87626
5 2 0.132658 0.0679166 0.124403
6 2 0.0669809 0.135985 0.621329
7 1 0.0656871 0.332714 0.248861
8 1 0.137768 0.272607 0.747886
9 2 0.134064 0.267204 0.378496
10 2 0.0700002 0.334947 0.883024
11 2 0.133616 0.267128 0.122272
12 2 0.0641905 0.331074 0.615999
13 1 0.0659532 0.53268 0.248449
14 1 0.13813 0.468937 0.748003
15 2 0.133923 0.467403 0.377573
16 2 0.0684147 0.533801 0.882471
17 2 0.13399 0.467149 0.122076
18 2 0.0638873 0.531747 0.618951
19 1 0.0674278 0.733986 0.250542
20 1 0.133908 0.663969 0.746774
21 2 0.13179 0.665435 0.379604
22 2 0.0682406 0.732561 0.875928
23 2 0.131953 0.666224 0.122043
24 2 0.0678723 0.731516 0.621902
25 1 0.0672516 0.932884 0.25093
26 1 0.133111 0.865897 0.749101
27 2 0.133446 0.865673 0.380612
28 2 0.0650931 0.933737 0.876609
29 2 0.133126 0.866295 0.122762
30 2 0.0659534 0.933751 0.619853
31 1 0.268162 0.134858 0.251183
32 1 0.332376 0.0665201 0.752983
33 2 0.332592 0.06673 0.378888
34 2 0.26949 0.141634 0.875952
35 2 0.333394 0.067622 0.122649
36 2 0.268106 0.135857 0.622498
37 1 0.266977 0.334372 0.24879
38 1 0.333802 0.271675 0.747221
39 2 0.334908 0.268094 0.379313
40 2 0.277988 0.360034 0.868996
41 2 0.333007 0.265498 0.121532
42 2 0.268113 0.336263 0.615559
43 1 0.265832 0.532501 0.249619
44 1 0.337162 0.4744 0.753415
45 2 0.334075 0.466758 0.376011
46 2 0.333602 0.46605 0.123249
47 2 0.265086 0.531439 0.604664
48 1 0.267346 0.734087 0.249121
49 1 0.332325 0.661548 0.743952
50 2 0.333005 0.668065 0.377479
51 2 0.265126 0.726708 0.88044
52 2 0.333323 0.666486 0.121107
53 2 0.266321 0.735783 0.616377
54 1 0.266769 0.93322 0.25133
55 1 0.332864 0.862477 0.751504
56 2 0.333265 0.86717 0.377407
57 2 0.26664 0.931586 0.879615
58 2 0.33339 0.866209 0.122826
59 2 0.269332 0.934865 0.622098
60 1 0.467297 0.135425 0.24999
61 1 0.533002 0.0650513 0.753692
62 2 0.531793 0.0649464 0.378929
63 2 0.46576 0.132973 0.880521
64 2 0.535745 0.068675 0.120353
65 2 0.467681 0.132426 0.624887
66 1 0.466921 0.332307 0.249931
67 1 0.53247 0.268922 0.754743
68 2 0.535152 0.263994 0.378085
69 2 0.466463 0.338574 0.881623
70 2 0.534788 0.267851 0.123935
71 2 0.465753 0.331351 0.617455
72 1 0.467014 0.533111 0.249835
73 1 0.531381 0.468328 0.747419
74 2 0.534748 0.466943 0.377869
75 2 0.53562 0.468492 0.121133
76 2 0.467328 0.531672 0.604056
77 1 0.466354 0.733172 0.249984
78 1 0.527623 0.660969 0.745228
79 2 0.534908 0.66866 0.377537
80 2 0.461973 0.722513 0.882411
81 2 0.535018 0.667181 0.12335
82 2 0.47016 0.737125 0.610496
83 1 0.466624 0.932962 0.251452
84 1 0.528501 0.85714 0.754903
85 2 0.53314 0.866156 0.376987
86 2 0.465519 0.930624 0.881398
87 2 0.532515 0.866696 0.122311
88 2 0.466351 0.928569 0.625214
89 1 0.665882 0.1318 0.250931
90 1 0.732586 0.0641448 0.755243
91 2 0.731754 0.0660095 0.379029
92 2 0.665061 0.133786 0.8853
93 2 0.732517 0.065596 0.123626
94 2 0.664604 0.133218 0.624768
95 1 0.665651 0.331831 0.251668
96 1 0.734539 0.266432 0.754497
97 2 0.733737 0.266962 0.375528
98 2 0.66691 0.335878 0.882416
99 2 0.730894 0.264513 0.122097
100 2 0.665903 0.333215 0.625164
101 1 0.667112 0.534204 0.251253
102 1 0.731091 0.467989 0.752877
103 2 0.734377 0.467875 0.376238
104 2 0.666888 0.535384 0.880907
105 2 0.731462 0.465064 0.123343
106 2 0.668572 0.532943 0.616434
107 1 0.667871 0.73428 0.250945
108 1 0.729377 0.664439 0.747636
109 2 0.734591 0.6682 0.379562
110 2 0.660875 0.726709 0.879183
111 2 0.733611 0.665424 0.122262
112 2 0.668445 0.734264 0.617685
113 1 0.665455 0.931999 0.249892
114 1 0.731458 0.862508 0.752256
115 2 0.733547 0.867349 0.379344
116 2 0.664076 0.927661 0.883269
117 2 0.731935 0.866198 0.119908
118 2 0.662186 0.929775 0.625797
119 1 0.865398 0.1333 0.251174
120 1 0.932678 0.067124 0.751497
121 2 0.933439 0.0680884 0.379311
122 2 0.868242 0.134105 0.882704
123 2 0.931858 0.0671873 0.123197
124 2 0.863804 0.134196 0.624102
125 1 0.86673 0.332604 0.249722
126 1 0.935679 0.268421 0.753113
127 2 0.935121 0.267459 0.379564
128 2 0.867792 0.333774 0.884505
129 2 0.932438 0.266199 0.120452
130 2 0.866281 0.33271 0.628388
131 1 0.866168 0.53385 0.24958
132 1 0.936619 0.467765 0.752472
133 2 0.934607 0.467696 0.37956
134 2 0.866878 0.534366 0.877287
135 2 0.933693 0.465855 0.123083
136 2 0.865466 0.529752 0.625725
137 1 0.8666 0.733063 0.249791
138 1 0.932823 0.666645 0.749192
139 2 0.934032 0.666783 0.377627
140 2 0.863007 0.732019 0.876802
141 2 0.934858 0.667452 0.123797
142 2 0.86544 0.73266 0.620969
143 1 0.866732 0.932841 0.25041
144 1 0.933148 0.866708 0.74897
145 2 0.932348 0.866284 0.37837
146 2 0.86769 0.93289 0.87839
147 2 0.9314 0.866618 0.121243
148 2 0.865289 0.933482 0.622912
ITEM: TIMESTEP
3800
ITEM: NUMBER OF ATOMS
148
ITEM: BOX BOUNDS xy xz yz pp pp pp
-7.9050788080789571e+00 1.5897976839853738e+01 -7.9342340878060806e+00
4.1552054596688447e-02 1.3760385002751736e+01 -7.6510419127339183e-05
4.9854437147133684e-01 1.2725265398528256e+01 8.4589473483544404e-03
ITEM: ATOMS id type xs ys zs
1 1 0.0751058 0.142892 0.261993
2 1 0.127916 0.0535958 0.743117
3 2 0.1328 0.0672774 0.389395
4 2 0.0561278 0.123586 0.863037
5 2 0.146537 0.0640455 0.142929
6 2 0.0622001 0.127701 0.615535
7 1 0.0623942 0.331367 0.241148
8 1 0.129103 0.263949 0.741696
9 2 0.135769 0.278428 0.382807
10 2 0.0633682 0.325027 0.885311
11 2 0.145281 0.274577 0.124651
12 2 0.0649339 0.340611 0.620012
13 1 0.0624987 0.529869 0.239872
14 1 0.146462 0.469849 0.759565
15 2 0.130352 0.464169 0.374189
16 2 0.0760911 0.531331 0.885962
17 2 0.140875 0.467178 0.119901
18 2 0.0676991 0.525234 0.623187
19 1 0.0734035 0.734726 0.26321
20 1 0.134012 0.660306 0.744693
21 2 0.137579 0.65432 0.3769
22 2 0.0643304 0.726936 0.864964
23 2 0.129222 0.668979 0.121257
24 2 0.0685255 0.72516 0.617158
25 1 0.0697506 0.930692 0.267725
26 1 0.131168 0.859071 0.736263
27 2 0.139821 0.867111 0.393525
28 2 0.05393 0.913615 0.865228
29 2 0.137444 0.869446 0.138631
30 2 0.0602048 0.921843 0.610213
31 1 0.275922 0.144202 0.271877
32 1 0.325529 0.0576283 0.758077
33 2 0.352402 0.0751069 0.380537
34 2 0.255572 0.129069 0.876025
35 2 0.324968 0.070514 0.130705
36 2 0.265431 0.130183 0.617309
37 1 0.274478 0.342988 0.257419
38 1 0.324244 0.268048 0.742428
39 2 0.350178 0.284738 0.390034
40 2 0.27203 0.362066 0.862629
41 2 0.347557 0.274226 0.136627
42 2 0.262632 0.337648 0.609025
43 1 0.265861 0.53203 0.251583
44 1 0.339954 0.477463 0.748145
45 2 0.342066 0.475151 0.383716
46 2 0.347864 0.475182 0.12808
47 2 0.262705 0.536396 0.602488
48 1 0.267631 0.735296 0.242901
49 1 0.333135 0.668343 0.728268
50 2 0.329957 0.668503 0.376632
51 2 0.269332 0.72811 0.868062
52 2 0.330924 0.667159 0.122104
53 2 0.260706 0.738946 0.609097
54 1 0.272015 0.938919 0.262806
55 1 0.337556 0.86476 0.742358
56 2 0.334642 0.863278 0.375899
57 2 0.25787 0.914076 0.87387
58 2 0.329825 0.871853 0.126534
59 2 0.268121 0.930355 0.615924
60 1 0.4684 0.136661 0.235745
61 1 0.530466 0.061883 0.747116
62 2 0.528091 0.0696924 0.369471
63 2 0.464111 0.128614 0.88678
64 2 0.524789 0.0602718 0.111443
65 2 0.461631 0.134328 0.628826
66 1 0.47897 0.336631 0.25985
67 1 0.53277 0.270405 0.761246
68 2 0.529194 0.260234 0.369096
69 2 0.467715 0.363539 0.864555
70 2 0.538552 0.27716 0.121748
71 2 0.467955 0.340037 0.619308
72 1 0.477073 0.539457 0.259757
73 1 0.532996 0.472922 0.749974
74 2 0.535625 0.467707 0.389415
75 2 0.548909 0.472806 0.136638
76 2 0.473551 0.532821 0.603311
77 1 0.464463 0.730354 0.251054
78 1 0.526106 0.661517 0.745225
79 2 0.539936 0.675833 0.379765
80 2 0.449688 0.715646 0.876782
81 2 0.547329 0.673854 0.134251
82 2 0.473653 0.734065 0.603378
83 1 0.465388 0.933154 0.250858
84 1 0.526581 0.850079 0.749845
85 2 0.528583 0.863252 0.373036
86 2 0.467421 0.923766 0.874582
87 2 0.520735 0.859861 0.123046
88 2 0.470706 0.924738 0.617249
89 1 0.658816 0.121662 0.23836
90 1 0.726089 0.058817 0.774029
91 2 0.71494 0.0541765 0.371071
92 2 0.655612 0.12893 0.891456
93 2 0.727633 0.0560075 0.12015
94 2 0.682051 0.139319 0.638235
95 1 0.671896 0.33037 0.250578
96 1 0.738263 0.269122 0.769811
97 2 0.739483 0.255786 0.368276
98 2 0.668027 0.348791 0.889172
99 2 0.724578 0.254681 0.113958
100 2 0.666277 0.331551 0.629184
101 1 0.675052 0.54292 0.271769
102 1 0.732318 0.473303 0.745624
103 2 0.738992 0.464145 0.380867
104 2 0.66922 0.540387 0.877209
105 2 0.726596 0.47065 0.131488
106 2 0.663338 0.535537 0.61498
107 1 0.679423 0.742631 0.26272
108 1 0.723988 0.666309 0.743675
109 2 0.745579 0.681075 0.390359
110 2 0.663336 0.72969 0.877827
111 2 0.736916 0.667606 0.133525
112 2 0.666473 0.735349 0.614055
113 1 0.656579 0.922543 0.244642
114 1 0.734248 0.859893 0.748586
115 2 0.731494 0.877636 0.383952
116 2 0.657727 0.913069 0.88021
117 2 0.73447 0.863077 0.12336
118 2 0.665758 0.932449 0.633547
119 1 0.852089 0.132626 0.256094
120 1 0.921708 0.0640012 0.735072
121 2 0.927458 0.0764506 0.37789
122 2 0.862042 0.12969 0.875768
123 2 0.93572 0.0792902 0.138102
124 2 0.841857 0.132905 0.633476
125 1 0.865709 0.330631 0.234131
126 1 0.933699 0.268438 0.750742
127 2 0.931205 0.271393 0.372748
128 2 0.874827 0.334829 0.890121
129 2 0.929746 0.256266 0.11736
130 2 0.866001 0.336207 0.625306
131 1 0.865357 0.533988 0.243424
132 1 0.940242 0.47113 0.75627
133 2 0.929813 0.459453 0.363046
134 2 0.87078 0.54242 0.875339
135 2 0.932124 0.466735 0.11147
136 2 0.873359 0.536099 0.622273
137 1 0.871602 0.73366 0.25308
138 1 0.929488 0.669967 0.738187
139 2 0.932705 0.661758 0.37854
140 2 0.858785 0.73243 0.86651
141 2 0.944107 0.675583 0.130876
142 2 0.854219 0.728301 0.612531
143 1 0.866019 0.937059 0.25549
144 1 0.927956 0.863482 0.735864
145 2 0.926208 0.864896 0.38212
146 2 0.87211 0.933426 0.866811
147 2 0.937581 0.871214 0.135668
148 2 0.858924 0.928149 0.612081
ITEM: TIMESTEP
3850
ITEM: NUMBER OF ATOMS
148
ITEM: BOX BOUNDS xy xz yz pp pp pp
-7.9050788080789571e+00 1.5897976839853738e+01 -7.9342340878060806e+00
4.1552054596688447e-02 1.3760385002751736e+01 -7.6510419127339183e-05
4.9854437147133684e-01 1.2725265398528256e+01 8.4589473483544404e-03
ITEM: ATOMS id type xs ys zs
1 1 0.0701425 0.13901 0.267234
2 1 0.123795 0.0639186 0.733154
3 2 0.133457 0.0771885 0.400439
4 2 0.0596081 0.132239 0.863494
5 2 0.143896 0.0694982 0.153406
6 2 0.0624407 0.13729 0.604821
7 1 0.06926 0.33436 0.240104
8 1 0.130817 0.265272 0.739652
9 2 0.134515 0.273447 0.382095
10 2 0.0669664 0.320026 0.884919
11 2 0.149173 0.266493 0.135715
12 2 0.0589383 0.328304 0.619538
13 1 0.0658473 0.530583 0.231434
14 1 0.12932 0.457798 0.758549
15 2 0.127985 0.463744 0.366064
16 2 0.0820154 0.54307 0.882021
17 2 0.138431 0.46508 0.112326
18 2 0.0666683 0.530668 0.622816
19 1 0.0669152 0.731332 0.262859
20 1 0.137079 0.665716 0.737608
21 2 0.140258 0.654751 0.374928
22 2 0.0613669 0.726289 0.86435
23 2 0.135226 0.679502 0.119908
24 2 0.0620365 0.71865 0.605552
25 1 0.077517 0.946574 0.276736
26 1 0.130254 0.854157 0.728755
27 2 0.13436 0.865246 0.390052
28 2 0.0648769 0.923529 0.853303
29 2 0.131161 0.873957 0.147953
30 2 0.0661859 0.925746 0.607092
31 1 0.27283 0.142198 0.280687
32 1 0.330741 0.0644383 0.752944
33 2 0.355147 0.0739378 0.387773
34 2 0.255456 0.138644 0.869488
35 2 0.320269 0.0685485 0.134227
36 2 0.264156 0.13264 0.617374
37 1 0.28095 0.345911 0.265538
38 1 0.329355 0.271898 0.742333
39 2 0.344299 0.278599 0.395616
40 2 0.267999 0.355036 0.856337
41 2 0.341396 0.269456 0.148323
42 2 0.258399 0.322978 0.609312
43 1 0.268913 0.534626 0.246423
44 1 0.327529 0.463143 0.74538
45 2 0.34137 0.482765 0.384805
46 2 0.35027 0.478162 0.134312
47 2 0.24391 0.508629 0.600613
48 1 0.267131 0.730747 0.245748
49 1 0.325167 0.652936 0.718712
50 2 0.332245 0.666559 0.376903
51 2 0.269498 0.718505 0.862493
52 2 0.340612 0.669852 0.123534
53 2 0.262554 0.730389 0.599477
54 1 0.270371 0.939082 0.267749
55 1 0.327023 0.85823 0.739056
56 2 0.329714 0.858142 0.378575
57 2 0.261959 0.928027 0.867422
58 2 0.319725 0.86815 0.126603
59 2 0.268888 0.933814 0.609247
60 1 0.465473 0.130312 0.23686
61 1 0.52977 0.0670637 0.75099
62 2 0.533989 0.0593853 0.363864
63 2 0.46441 0.130828 0.888024
64 2 0.518113 0.0524531 0.106588
65 2 0.468517 0.141133 0.628308
66 1 0.479788 0.350352 0.267434
67 1 0.526032 0.269646 0.765936
68 2 0.542268 0.264964 0.368363
69 2 0.447159 0.335399 0.886226
70 2 0.530466 0.278364 0.133987
71 2 0.463644 0.331414 0.619145
72 1 0.478203 0.543805 0.267492
73 1 0.530415 0.466564 0.751293
74 2 0.542076 0.478273 0.396864
75 2 0.552943 0.484051 0.1437
76 2 0.461513 0.527089 0.606452
77 1 0.467567 0.730996 0.250734
78 1 0.528647 0.659219 0.7408
79 2 0.531047 0.674088 0.389405
80 2 0.452745 0.721805 0.868928
81 2 0.541025 0.668165 0.128608
82 2 0.472294 0.741316 0.608112
83 1 0.457116 0.922377 0.244448
84 1 0.53132 0.862537 0.753192
85 2 0.529816 0.862431 0.369614
86 2 0.459937 0.926376 0.872895
87 2 0.52338 0.855952 0.118311
88 2 0.467147 0.932993 0.622818
89 1 0.662031 0.130825 0.229697
90 1 0.726627 0.0586542 0.779463
91 2 0.721066 0.0658338 0.364897
92 2 0.655448 0.129027 0.892597
93 2 0.736757 0.0656902 0.114916
94 2 0.660828 0.132306 0.648298
95 1 0.674712 0.340308 0.242812
96 1 0.728861 0.270873 0.774591
97 2 0.74056 0.260248 0.364196
98 2 0.66391 0.341112 0.894474
99 2 0.726513 0.26838 0.101475
100 2 0.653479 0.327461 0.638199
101 1 0.681463 0.536783 0.276693
102 1 0.735048 0.467015 0.750639
103 2 0.751246 0.462545 0.383515
104 2 0.673479 0.542825 0.874512
105 2 0.740524 0.476866 0.122403
106 2 0.667157 0.52992 0.616106
107 1 0.667166 0.73363 0.26396
108 1 0.730459 0.666496 0.733987
109 2 0.747026 0.681105 0.390422
110 2 0.653905 0.716891 0.870678
111 2 0.746544 0.673429 0.147609
112 2 0.667471 0.736264 0.607281
113 1 0.661699 0.930731 0.240798
114 1 0.721088 0.859226 0.747371
115 2 0.734879 0.876226 0.376456
116 2 0.657813 0.915866 0.89265
117 2 0.748073 0.867485 0.135311
118 2 0.667935 0.942025 0.62748
119 1 0.86337 0.125258 0.251934
120 1 0.930414 0.0625832 0.732086
121 2 0.93516 0.0749471 0.391962
122 2 0.874536 0.126941 0.876475
123 2 0.947225 0.0719992 0.131471
124 2 0.841072 0.122401 0.636827
125 1 0.863144 0.332197 0.226395
126 1 0.930677 0.263486 0.755091
127 2 0.928264 0.264964 0.360757
128 2 0.870376 0.338603 0.889562
129 2 0.928931 0.256259 0.120481
130 2 0.858015 0.335912 0.638531
131 1 0.873187 0.535409 0.24652
132 1 0.940276 0.473669 0.760416
133 2 0.936589 0.459889 0.360423
134 2 0.86954 0.539214 0.88321
135 2 0.931778 0.471771 0.105702
136 2 0.866766 0.522586 0.617232
137 1 0.882695 0.744648 0.263239
138 1 0.930597 0.659643 0.735305
139 2 0.931874 0.659595 0.385812
140 2 0.866571 0.733595 0.859068
141 2 0.938828 0.675078 0.129798
142 2 0.865816 0.728204 0.606632
143 1 0.876465 0.943291 0.266042
144 1 0.925978 0.863636 0.72934
145 2 0.935609 0.880739 0.390938
146 2 0.861643 0.932175 0.861697
147 2 0.95343 0.882779 0.143834
148 2 0.84949 0.926931 0.60956
ITEM: TIMESTEP
3900
ITEM: NUMBER OF ATOMS
148
ITEM: BOX BOUNDS xy xz yz pp pp pp
-7.9050788080789571e+00 1.5897976839853738e+01 -7.9342340878060806e+00
4.1552054596688447e-02 1.3760385002751736e+01 -7.6510419127339183e-05
4.9854437147133684e-01 1.2725265398528256e+01 8.4589473483544404e-03
ITEM: ATOMS id type xs ys zs
1 1 0.0735479 0.14355 0.269495
2 1 0.138304 0.0759879 0.729209
3 2 0.148231 0.0843334 0.391406
4 2 0.0696712 0.13697 0.865154
5 2 0.143322 0.0761112 0.149948
6 2 0.057547 0.139706 0.616772
7 1 0.0710871 0.336842 0.240728
8 1 0.131173 0.270592 0.742961
9 2 0.130126 0.27747 0.386549
10 2 0.0665415 0.333096 0.880528
11 2 0.149993 0.27036 0.136565
12 2 0.0429616 0.316573 0.619498
13 1 0.0760593 0.534645 0.227853
14 1 0.118667 0.456985 0.744476
15 2 0.135434 0.466745 0.362668
16 2 0.0719097 0.535645 0.876945
17 2 0.141732 0.463696 0.104525
18 2 0.0442018 0.516662 0.610247
19 1 0.0715193 0.740172 0.250813
20 1 0.131477 0.655144 0.73074
21 2 0.129739 0.654427 0.370313
22 2 0.0775614 0.737597 0.856907
23 2 0.137805 0.680977 0.117363
24 2 0.0703995 0.732862 0.609167
25 1 0.0773739 0.945076 0.276773
26 1 0.129466 0.87283 0.729541
27 2 0.130552 0.863017 0.391528
28 2 0.0695934 0.947066 0.858774
29 2 0.129547 0.879733 0.135911
30 2 0.0713039 0.943415 0.60281
31 1 0.27747 0.14347 0.274159
32 1 0.326468 0.0685043 0.742926
33 2 0.342743 0.065034 0.383192
34 2 0.25922 0.139336 0.868664
35 2 0.324931 0.0661007 0.145976
36 2 0.274834 0.143354 0.605699
37 1 0.2685 0.333898 0.266048
38 1 0.333664 0.269127 0.748645
39 2 0.341314 0.278047 0.395419
40 2 0.274328 0.352753 0.863381
41 2 0.335618 0.272076 0.143082
42 2 0.262917 0.320837 0.618842
43 1 0.27076 0.533895 0.236915
44 1 0.32783 0.467018 0.749193
45 2 0.329135 0.469736 0.381112
46 2 0.340595 0.459506 0.129958
47 2 0.239773 0.504182 0.598591
48 1 0.261814 0.730151 0.252681
49 1 0.327534 0.643805 0.725706
50 2 0.331865 0.661572 0.371941
51 2 0.264501 0.710392 0.859641
52 2 0.337441 0.67271 0.124676
53 2 0.269142 0.728639 0.603083
54 1 0.260772 0.92779 0.259713
55 1 0.324068 0.854056 0.743554
56 2 0.339342 0.861493 0.373713
57 2 0.262542 0.933798 0.864088
58 2 0.321692 0.859276 0.12534
59 2 0.270718 0.935391 0.617339
60 1 0.46874 0.138972 0.257385
61 1 0.519592 0.0642057 0.765866
62 2 0.544605 0.065963 0.366298
63 2 0.44524 0.130362 0.8914
64 2 0.520999 0.0667691 0.115432
65 2 0.465484 0.134853 0.631098
66 1 0.473792 0.338091 0.269965
67 1 0.526863 0.263534 0.769093
68 2 0.546608 0.272176 0.38474
69 2 0.455094 0.33359 0.888267
70 2 0.520234 0.270003 0.12398
71 2 0.459014 0.320363 0.626007
72 1 0.467654 0.534307 0.265307
73 1 0.52768 0.462764 0.752872
74 2 0.54293 0.476003 0.388234
75 2 0.540444 0.473082 0.143406
76 2 0.455623 0.510442 0.602953
77 1 0.472119 0.739138 0.248457
78 1 0.516198 0.656311 0.733203
79 2 0.536123 0.675987 0.382694
80 2 0.450215 0.716719 0.879467
81 2 0.541876 0.663498 0.132559
82 2 0.461575 0.745335 0.600767
83 1 0.466807 0.931413 0.235099
84 1 0.511388 0.855193 0.75842
85 2 0.540282 0.873428 0.369538
86 2 0.444424 0.921211 0.88989
87 2 0.543163 0.867633 0.113021
88 2 0.468216 0.94255 0.623699
89 1 0.673022 0.138285 0.226492
90 1 0.735387 0.0728431 0.76407
91 2 0.74723 0.082589 0.361732
92 2 0.659228 0.129039 0.893054
93 2 0.743231 0.0708277 0.107603
94 2 0.665465 0.137785 0.640666
95 1 0.662916 0.341939 0.238859
96 1 0.724514 0.264205 0.772375
97 2 0.738379 0.272484 0.357363
98 2 0.659635 0.328141 0.896365
99 2 0.743322 0.283604 0.107543
100 2 0.660612 0.325226 0.641305
101 1 0.683944 0.545928 0.258897
102 1 0.725864 0.463777 0.765693
103 2 0.744779 0.467206 0.379099
104 2 0.665313 0.542302 0.887433
105 2 0.743863 0.474846 0.124635
106 2 0.651637 0.512375 0.617532
107 1 0.673913 0.736677 0.25947
108 1 0.734429 0.657943 0.731311
109 2 0.735126 0.67551 0.396398
110 2 0.652411 0.711266 0.867031
111 2 0.75536 0.68165 0.132866
112 2 0.657284 0.7256 0.610255
113 1 0.676471 0.942932 0.239975
114 1 0.719758 0.858488 0.748335
115 2 0.726837 0.86763 0.383565
116 2 0.654522 0.924896 0.876935
117 2 0.74711 0.874059 0.125754
118 2 0.65537 0.936988 0.634291
119 1 0.878246 0.138439 0.236655
120 1 0.928347 0.0588207 0.75195
121 2 0.936069 0.0722676 0.377099
122 2 0.867966 0.124264 0.88986
123 2 0.952985 0.0600818 0.142143
124 2 0.865319 0.132054 0.628705
125 1 0.873503 0.331754 0.228589
126 1 0.923016 0.257624 0.766327
127 2 0.946495 0.278074 0.363999
128 2 0.855702 0.326634 0.894686
129 2 0.951119 0.272534 0.106578
130 2 0.853699 0.321088 0.642569
131 1 0.880305 0.538593 0.251935
132 1 0.929737 0.457674 0.76035
133 2 0.945951 0.461524 0.363533
134 2 0.871653 0.53159 0.880962
135 2 0.934967 0.472807 0.113336
136 2 0.853927 0.51616 0.630183
137 1 0.873461 0.741731 0.273725
138 1 0.936377 0.661341 0.741688
139 2 0.947262 0.671071 0.381966
140 2 0.871329 0.731999 0.8657
141 2 0.93289 0.676852 0.134304
142 2 0.870164 0.719961 0.602843
143 1 0.869357 0.92845 0.267771
144 1 0.933628 0.863171 0.730717
145 2 0.947045 0.87858 0.402764
146 2 0.862609 0.92618 0.872332
147 2 0.951815 0.874576 0.147134
148 2 0.857266 0.932337 0.613669
ITEM: TIMESTEP
3950
ITEM: NUMBER OF ATOMS
148
ITEM: BOX BOUNDS xy xz yz pp pp pp
-7.9050788080789571e+00 1.5897976839853738e+01 -7.9342340878060806e+00
4.1552054596688447e-02 1.3760385002751736e+01 -7.6510419127339183e-05
4.9854437147133684e-01 1.2725265398528256e+01 8.4589473483544404e-03
ITEM: ATOMS id type xs ys zs
1 1 0.0717064 0.133108 0.265288
2 1 0.132343 0.0727269 0.740643
3 2 0.144 0.0710652 0.390683
4 2 0.0720542 0.138579 0.881848
5 2 0.140596 0.0678338 0.139584
6 2 0.0531454 0.136539 0.629153
7 1 0.0792295 0.345013 0.24196
8 1 0.130393 0.269789 0.752258
9 2 0.130168 0.269646 0.377145
10 2 0.079559 0.352904 0.879376
11 2 0.138649 0.264253 0.127568
12 2 0.0535745 0.321563 0.617415
13 1 0.0735389 0.540673 0.234609
14 1 0.128203 0.461876 0.723769
15 2 0.148072 0.478563 0.363844
16 2 0.0585645 0.518539 0.862144
17 2 0.143618 0.475737 0.106297
18 2 0.029084 0.507885 0.607269
19 1 0.0701614 0.738258 0.240813
20 1 0.121497 0.649119 0.728782
21 2 0.137028 0.668813 0.365508
22 2 0.0793664 0.734344 0.862607
23 2 0.145123 0.682237 0.117578
24 2 0.0681282 0.734093 0.612743
25 1 0.0662032 0.930686 0.264384
26 1 0.131323 0.873391 0.740113
27 2 0.144552 0.860458 0.374836
28 2 0.0621805 0.937629 0.867751
29 2 0.145519 0.883848 0.124154
30 2 0.0669123 0.942891 0.608452
31 1 0.273003 0.132381 0.257645
32 1 0.328242 0.0620807 0.744422
33 2 0.333736 0.0626543 0.389264
34 2 0.265706 0.138417 0.873244
35 2 0.350574 0.0825234 0.130415
36 2 0.277514 0.148496 0.623247
37 1 0.267426 0.333321 0.256838
38 1 0.332277 0.279068 0.756726
39 2 0.336146 0.267766 0.380915
40 2 0.268801 0.357764 0.875465
41 2 0.32678 0.262102 0.134771
42 2 0.258407 0.329258 0.617426
43 1 0.278607 0.539664 0.23628
44 1 0.333718 0.471771 0.754171
45 2 0.342059 0.47246 0.372825
46 2 0.338593 0.459045 0.121907
47 2 0.270821 0.531156 0.603296
48 1 0.276304 0.740496 0.250272
49 1 0.318119 0.654969 0.748097
50 2 0.334416 0.667584 0.366085
51 2 0.249535 0.711007 0.866749
52 2 0.342701 0.680135 0.116567
53 2 0.261602 0.732743 0.613678
54 1 0.279448 0.93985 0.246007
55 1 0.313123 0.85461 0.75114
56 2 0.355683 0.876027 0.372552
57 2 0.258143 0.929371 0.87898
58 2 0.343114 0.869439 0.121526
59 2 0.262093 0.926953 0.614813
60 1 0.47366 0.135958 0.276963
61 1 0.520624 0.0550351 0.776877
62 2 0.556248 0.0758211 0.378539
63 2 0.446891 0.124723 0.890246
64 2 0.538984 0.0857826 0.123385
65 2 0.46952 0.125019 0.630957
66 1 0.469747 0.335097 0.258834
67 1 0.52765 0.261588 0.766317
68 2 0.549419 0.277295 0.386407
69 2 0.463189 0.33697 0.890912
70 2 0.537626 0.262134 0.138259
71 2 0.465244 0.331645 0.628054
72 1 0.469009 0.529588 0.250321
73 1 0.525652 0.470932 0.752452
74 2 0.53801 0.473811 0.381254
75 2 0.524483 0.459828 0.117609
76 2 0.45789 0.519149 0.601444
77 1 0.475832 0.74191 0.245164
78 1 0.523502 0.659346 0.726483
79 2 0.532721 0.669065 0.371881
80 2 0.45018 0.696586 0.872588
81 2 0.543558 0.665641 0.125823
82 2 0.453333 0.725652 0.610093
83 1 0.482586 0.95515 0.234521
84 1 0.51383 0.844811 0.760616
85 2 0.543962 0.884563 0.36489
86 2 0.43637 0.90719 0.885198
87 2 0.550288 0.880598 0.119597
88 2 0.460551 0.927556 0.64003
89 1 0.681747 0.143126 0.238818
90 1 0.717127 0.055047 0.745512
91 2 0.754541 0.0828134 0.364958
92 2 0.661451 0.124754 0.892503
93 2 0.735636 0.0692386 0.113785
94 2 0.651612 0.134442 0.63641
95 1 0.673367 0.338876 0.244991
96 1 0.723299 0.255761 0.769046
97 2 0.747983 0.275374 0.364606
98 2 0.662261 0.322698 0.899286
99 2 0.747896 0.27485 0.115756
100 2 0.671279 0.329417 0.646162
101 1 0.663461 0.538747 0.238869
102 1 0.724139 0.463688 0.778479
103 2 0.734314 0.477882 0.367689
104 2 0.648225 0.535502 0.892836
105 2 0.732439 0.475097 0.119122
106 2 0.668485 0.52513 0.626543
107 1 0.672405 0.741273 0.247961
108 1 0.724159 0.657926 0.744392
109 2 0.72212 0.659312 0.375355
110 2 0.647746 0.71455 0.870795
111 2 0.748239 0.68394 0.126449
112 2 0.665923 0.726574 0.607464
113 1 0.683031 0.944233 0.246176
114 1 0.724187 0.851681 0.748394
115 2 0.730649 0.870511 0.384942
116 2 0.66148 0.922213 0.876725
117 2 0.747308 0.881029 0.115296
118 2 0.648845 0.909767 0.626154
119 1 0.879667 0.142975 0.228278
120 1 0.9277 0.0581733 0.772553
121 2 0.934514 0.0772936 0.377319
122 2 0.8452 0.124146 0.886401
123 2 0.952855 0.0731406 0.121614
124 2 0.868109 0.12914 0.637336
125 1 0.881565 0.345151 0.235938
126 1 0.932713 0.2608 0.771909
127 2 0.941452 0.273817 0.360565
128 2 0.850113 0.322302 0.890681
129 2 0.947606 0.281105 0.107688
130 2 0.849424 0.310913 0.641575
131 1 0.873725 0.536812 0.252301
132 1 0.915139 0.452257 0.755376
133 2 0.943738 0.468642 0.373588
134 2 0.87154 0.536707 0.889718
135 2 0.936833 0.481309 0.113853
136 2 0.847345 0.527296 0.632607
137 1 0.87008 0.72719 0.268232
138 1 0.93621 0.666433 0.752127
139 2 0.949488 0.663368 0.385732
140 2 0.858775 0.726718 0.874849
141 2 0.930582 0.665753 0.124794
142 2 0.86056 0.72592 0.617027
143 1 0.869521 0.937696 0.2596
144 1 0.930767 0.861846 0.738556
145 2 0.930993 0.866739 0.394474
146 2 0.853392 0.912356 0.882976
147 2 0.931984 0.861483 0.135152
148 2 0.859095 0.93913 0.627083
ITEM: TIMESTEP
4000
ITEM: NUMBER OF ATOMS
148
ITEM: BOX BOUNDS xy xz yz pp pp pp
-7.9050788080789571e+00 1.5897976839853738e+01 -7.9342340878060806e+00
4.1552054596688447e-02 1.3760385002751736e+01 -7.6510419127339183e-05
4.9854437147133684e-01 1.2725265398528256e+01 8.4589473483544404e-03
ITEM: ATOMS id type xs ys zs
1 1 0.0707544 0.128971 0.249152
2 1 0.122045 0.058618 0.765302
3 2 0.131488 0.0557155 0.378497
4 2 0.067248 0.138519 0.892619
5 2 0.134223 0.0571329 0.117998
6 2 0.0523288 0.128202 0.639728
7 1 0.0793763 0.344323 0.239552
8 1 0.133734 0.269066 0.760459
9 2 0.148082 0.275425 0.365998
10 2 0.0803078 0.357367 0.876707
11 2 0.136346 0.255602 0.119015
12 2 0.0599121 0.322926 0.615682
13 1 0.0789651 0.55004 0.253131
14 1 0.129828 0.462823 0.711635
15 2 0.148953 0.479777 0.374551
16 2 0.069219 0.525763 0.859176
17 2 0.141571 0.480321 0.112325
18 2 0.0484735 0.532069 0.60363
19 1 0.0749415 0.735016 0.238819
20 1 0.112283 0.656724 0.741083
21 2 0.156337 0.687526 0.372023
22 2 0.0487683 0.713147 0.876758
23 2 0.152141 0.678398 0.114267
24 2 0.0398802 0.719171 0.617505
25 1 0.0657957 0.922118 0.246154
26 1 0.120426 0.849657 0.75478
27 2 0.143505 0.857093 0.366336
28 2 0.0533903 0.915117 0.884593
29 2 0.147657 0.871185 0.117322
30 2 0.0599874 0.928582 0.633521
31 1 0.259932 0.121835 0.24824
32 1 0.334306 0.065036 0.757324
33 2 0.341351 0.076085 0.383513
34 2 0.268883 0.137354 0.878428
35 2 0.365708 0.0927397 0.130742
36 2 0.248854 0.129418 0.639426
37 1 0.276927 0.336398 0.239217
38 1 0.332359 0.276778 0.75467
39 2 0.335514 0.261425 0.367309
40 2 0.27948 0.365551 0.877506
41 2 0.328613 0.250716 0.113533
42 2 0.265332 0.339838 0.627259
43 1 0.279368 0.551452 0.241259
44 1 0.330039 0.485294 0.757513
45 2 0.348807 0.478316 0.3613
46 2 0.33201 0.47286 0.113294
47 2 0.275432 0.551235 0.595582
48 1 0.290744 0.755938 0.23422
49 1 0.316176 0.662172 0.757253
50 2 0.350902 0.681149 0.367921
51 2 0.23132 0.720415 0.881069
52 2 0.351385 0.682053 0.109384
53 2 0.251712 0.732642 0.621859
54 1 0.285315 0.947218 0.242147
55 1 0.316067 0.851093 0.761982
56 2 0.35676 0.884573 0.372205
57 2 0.257153 0.92773 0.881985
58 2 0.362585 0.889351 0.112975
59 2 0.264989 0.931422 0.635136
60 1 0.484934 0.144872 0.275831
61 1 0.5173 0.041081 0.769825
62 2 0.557596 0.0755507 0.385521
63 2 0.467307 0.123141 0.887066
64 2 0.557443 0.0899305 0.139678
65 2 0.469298 0.125515 0.637215
66 1 0.467234 0.326666 0.24061
67 1 0.522703 0.267504 0.759548
68 2 0.549137 0.287441 0.379149
69 2 0.458449 0.331778 0.896006
70 2 0.54561 0.27405 0.137992
71 2 0.457801 0.330579 0.61679
72 1 0.47447 0.544498 0.229381
73 1 0.530094 0.464846 0.753233
74 2 0.531815 0.467569 0.358287
75 2 0.526161 0.458167 0.109888
76 2 0.458338 0.516023 0.610926
77 1 0.478741 0.748711 0.241092
78 1 0.531116 0.659723 0.725993
79 2 0.535641 0.672647 0.360708
80 2 0.457062 0.699723 0.875346
81 2 0.536894 0.677803 0.101574
82 2 0.455727 0.724195 0.617658
83 1 0.488938 0.945617 0.249754
84 1 0.525734 0.839069 0.762342
85 2 0.541702 0.867431 0.381438
86 2 0.445562 0.89573 0.882169
87 2 0.55168 0.882169 0.113674
88 2 0.453601 0.908053 0.645367
89 1 0.688245 0.150899 0.26602
90 1 0.705931 0.0284082 0.746565
91 2 0.753226 0.0738319 0.374536
92 2 0.655709 0.106298 0.883658
93 2 0.733489 0.0777604 0.127887
94 2 0.647058 0.113515 0.637148
95 1 0.685291 0.33943 0.261518
96 1 0.719803 0.251674 0.766575
97 2 0.754715 0.287835 0.387197
98 2 0.655511 0.322738 0.894577
99 2 0.74635 0.274352 0.128338
100 2 0.665347 0.333431 0.638639
101 1 0.661498 0.523824 0.229534
102 1 0.725164 0.465417 0.77625
103 2 0.73615 0.479435 0.374571
104 2 0.648765 0.534698 0.891543
105 2 0.728171 0.454899 0.115901
106 2 0.673144 0.535437 0.632798
107 1 0.665564 0.731958 0.241318
108 1 0.725173 0.662485 0.760468
109 2 0.725823 0.64821 0.358627
110 2 0.652327 0.728325 0.87553
111 2 0.726879 0.667691 0.117601
112 2 0.677099 0.735505 0.616644
113 1 0.67034 0.942358 0.25198
114 1 0.725378 0.854536 0.750796
115 2 0.746789 0.870903 0.362441
116 2 0.659076 0.908938 0.885928
117 2 0.746488 0.883136 0.128273
118 2 0.646551 0.895891 0.622688
119 1 0.877122 0.143118 0.238024
120 1 0.925605 0.0642322 0.779369
121 2 0.93419 0.0732585 0.373687
122 2 0.840799 0.121297 0.869789
123 2 0.934294 0.0755319 0.1163
124 2 0.854462 0.120654 0.64952
125 1 0.878632 0.348076 0.244701
126 1 0.939567 0.269564 0.761069
127 2 0.940258 0.2743 0.370088
128 2 0.866106 0.333919 0.878582
129 2 0.94379 0.283293 0.114607
130 2 0.853087 0.321809 0.634309
131 1 0.861204 0.538022 0.241619
132 1 0.925391 0.46607 0.748207
133 2 0.938348 0.479077 0.368461
134 2 0.863886 0.524973 0.889015